HTP_electride                           
   1.00000000000000     
     6.805416    0.000000    0.000000
     3.402708    5.893663    0.000000
     3.402708    1.964554    5.556599
   Ca   Ge   O 
     6     2     1
Direct
  0.246477  0.753523  0.246477
  0.753523  0.753523  0.246477
  0.753523  0.246477  0.246477
  0.753523  0.246477  0.753523
  0.246477  0.246477  0.753523
  0.246477  0.753523  0.753523
  0.750000  0.750000  0.750000
  0.250000  0.250000  0.250000
  0.000000  0.000000  0.000000
 
   54   54   54
 0.30818     0.38710     0.57458     0.73527     0.81363     0.83260     0.80945     0.74044     0.62013     0.45796    
 0.27465     0.13854     0.71519E-01 0.43179E-01 0.32262E-01 0.30743E-01 0.35982E-01 0.47704E-01 0.67280E-01 0.96620E-01
 0.13456     0.17493     0.21109     0.24031     0.26256     0.27831     0.28777     0.29092     0.28777     0.27831    
 0.26256     0.24031     0.21109     0.17493     0.13456     0.96620E-01 0.67280E-01 0.47704E-01 0.35982E-01 0.30743E-01
 0.32262E-01 0.43179E-01 0.71519E-01 0.13854     0.27465     0.45796     0.62013     0.74044     0.80945     0.83260    
 0.81363     0.73527     0.57458     0.38710     0.38710     0.52129     0.68782     0.79138     0.83024     0.82419    
 0.77673     0.67806     0.53267     0.35237     0.18818     0.94220E-01 0.52907E-01 0.35919E-01 0.30697E-01 0.32905E-01
 0.41373E-01 0.56778E-01 0.81171E-01 0.11567     0.15661     0.19670     0.23064     0.25706     0.27626     0.28883    
 0.29507     0.29507     0.28883     0.27626     0.25706     0.23064     0.19670     0.15661     0.11567     0.81171E-01
 0.56778E-01 0.41373E-01 0.32905E-01 0.30697E-01 0.35919E-01 0.52907E-01 0.94220E-01 0.18818     0.35237     0.53267    
 0.67806     0.77673     0.82419     0.83024     0.79138     0.68782     0.52129     0.38710     0.57458     0.68782    
 0.78082     0.82574     0.82945     0.79558     0.71401     0.58127     0.40863     0.23190     0.11650     0.63099E-01
 0.40628E-01 0.32190E-01 0.31793E-01 0.37500E-01 0.49357E-01 0.69114E-01 0.99272E-01 0.13949     0.18398     0.22504    
 0.25821     0.28249     0.29863     0.30787     0.31089     0.30787     0.29863     0.28249     0.25821     0.22504    
 0.18398     0.13949     0.99272E-01 0.69114E-01 0.49357E-01 0.37500E-01 0.31792E-01 0.32190E-01 0.40627E-01 0.63099E-01
 0.11650     0.23190     0.40863     0.58127     0.71401     0.79558     0.82945     0.82574     0.78082     0.68782    
 0.57458     0.52129     0.73527     0.79138     0.82574     0.83054     0.80339     0.73325     0.61065     0.44434    
 0.26364     0.13442     0.71775E-01 0.45229E-01 0.34503E-01 0.32156E-01 0.35719E-01 0.44745E-01 0.60509E-01 0.85896E-01
 0.12324     0.17030     0.21946     0.26253     0.29513     0.31686     0.32969     0.33566     0.33566     0.32969    
 0.31686     0.29513     0.26253     0.21946     0.17030     0.12324     0.85896E-01 0.60509E-01 0.44745E-01 0.35719E-01
 0.32155E-01 0.34503E-01 0.45229E-01 0.71775E-01 0.13442     0.26364     0.44434     0.61065     0.73325     0.80339    
 0.83054     0.82574     0.79138     0.73527     0.68782     0.68782     0.81363     0.83024     0.82945     0.80339    
 0.73925     0.62458     0.46389     0.28319     0.14655     0.77988E-01 0.48963E-01 0.37011E-01 0.33494E-01 0.35588E-01
 0.42524E-01 0.55135E-01 0.76104E-01 0.10910     0.15548     0.21071     0.26519     0.30986     0.34080     0.35931    
 0.36882     0.37175     0.36882     0.35931     0.34080     0.30987     0.26519     0.21071     0.15548     0.10910    
 0.76104E-01 0.55135E-01 0.42524E-01 0.35588E-01 0.33494E-01 0.37011E-01 0.48963E-01 0.77988E-01 0.14655     0.28318    
 0.46389     0.62458     0.73925     0.80339     0.82945     0.83024     0.81363     0.79138     0.78082     0.79138    
 0.83260     0.82419     0.79558     0.73325     0.62458     0.47012     0.29233     0.15332     0.81782E-01 0.51592E-01
 0.39288E-01 0.35350E-01 0.36645E-01 0.42189E-01 0.52469E-01 0.69805E-01 0.98192E-01 0.14129     0.19858     0.26258    
 0.32129     0.36535     0.39288     0.40761     0.41387     0.41387     0.40761     0.39288     0.36535     0.32129    
 0.26258     0.19858     0.14129     0.98192E-01 0.69805E-01 0.52469E-01 0.42189E-01 0.36645E-01 0.35350E-01 0.39288E-01
 0.51592E-01 0.81781E-01 0.15332     0.29233     0.47011     0.62458     0.73325     0.79558     0.82419     0.83260    
 0.83024     0.82574     0.82574     0.83024     0.80945     0.77673     0.71401     0.61065     0.46389     0.29233    
 0.15547     0.83544E-01 0.53139E-01 0.41036E-01 0.37254E-01 0.38366E-01 0.43167E-01 0.51852E-01 0.66404E-01 0.90703E-01
 0.12948     0.18532     0.25459     0.32584     0.38510     0.42498     0.44736     0.45795     0.46103     0.45795    
 0.44736     0.42498     0.38510     0.32584     0.25459     0.18532     0.12948     0.90703E-01 0.66404E-01 0.51852E-01
 0.43167E-01 0.38366E-01 0.37254E-01 0.41035E-01 0.53139E-01 0.83544E-01 0.15547     0.29233     0.46389     0.61065    
 0.71401     0.77673     0.80945     0.82419     0.82945     0.83054     0.82945     0.82419     0.74044     0.67806    
 0.58127     0.44434     0.28318     0.15332     0.83544E-01 0.53651E-01 0.41997E-01 0.38700E-01 0.40110E-01 0.44763E-01
 0.52540E-01 0.65107E-01 0.86116E-01 0.12065     0.17318     0.24366     0.32348     0.39699     0.45101     0.48330    
 0.49951     0.50599     0.50599     0.49951     0.48330     0.45101     0.39699     0.32348     0.24366     0.17318    
 0.12065     0.86116E-01 0.65107E-01 0.52540E-01 0.44763E-01 0.40110E-01 0.38700E-01 0.41997E-01 0.53651E-01 0.83544E-01
 0.15332     0.28318     0.44434     0.58127     0.67806     0.74044     0.77673     0.79558     0.80339     0.80339    
 0.79558     0.77673     0.62013     0.53267     0.40863     0.26364     0.14655     0.81782E-01 0.53139E-01 0.41997E-01
 0.39243E-01 0.41209E-01 0.46185E-01 0.53703E-01 0.65075E-01 0.83671E-01 0.11461     0.16334     0.23241     0.31659    
 0.40107     0.46876     0.51216     0.53518     0.54543     0.54827     0.54543     0.53518     0.51216     0.46876    
 0.40107     0.31659     0.23241     0.16334     0.11461     0.83671E-01 0.65075E-01 0.53703E-01 0.46185E-01 0.41209E-01
 0.39243E-01 0.41997E-01 0.53139E-01 0.81782E-01 0.14655     0.26364     0.40863     0.53267     0.62013     0.67806    
 0.71401     0.73325     0.73925     0.73325     0.71401     0.67806     0.45796     0.35237     0.23190     0.13442    
 0.77988E-01 0.51592E-01 0.41036E-01 0.38700E-01 0.41209E-01 0.46751E-01 0.54540E-01 0.65488E-01 0.82608E-01 0.11084    
 0.15610     0.22257     0.30789     0.39938     0.47835     0.53264     0.56312     0.57759     0.58308     0.58308    
 0.57759     0.56312     0.53264     0.47835     0.39938     0.30789     0.22257     0.15610     0.11084     0.82608E-01
 0.65488E-01 0.54540E-01 0.46751E-01 0.41209E-01 0.38700E-01 0.41036E-01 0.51592E-01 0.77988E-01 0.13442     0.23191    
 0.35237     0.45796     0.53267     0.58127     0.61065     0.62458     0.62458     0.61065     0.58127     0.53267    
 0.27465     0.18818     0.11650     0.71775E-01 0.48963E-01 0.39288E-01 0.37254E-01 0.40110E-01 0.46185E-01 0.54540E-01
 0.65708E-01 0.82272E-01 0.10885     0.15142     0.21509     0.29962     0.39465     0.48161     0.54523     0.58306    
 0.60204     0.61021     0.61244     0.61021     0.60204     0.58306     0.54523     0.48161     0.39465     0.29962    
 0.21509     0.15142     0.10885     0.82272E-01 0.65708E-01 0.54540E-01 0.46185E-01 0.40110E-01 0.37254E-01 0.39288E-01
 0.48963E-01 0.71775E-01 0.11650     0.18818     0.27465     0.35237     0.40863     0.44434     0.46389     0.47012    
 0.46389     0.44434     0.40863     0.35237     0.13854     0.94220E-01 0.63099E-01 0.45229E-01 0.37011E-01 0.35350E-01
 0.38366E-01 0.44763E-01 0.53703E-01 0.65488E-01 0.82272E-01 0.10824     0.14914     0.21047     0.29336     0.38945    
 0.48118     0.55179     0.59605     0.61947     0.63033     0.63450     0.63450     0.63033     0.61947     0.59605    
 0.55179     0.48118     0.38945     0.29336     0.21047     0.14914     0.10824     0.82272E-01 0.65488E-01 0.53703E-01
 0.44763E-01 0.38366E-01 0.35350E-01 0.37011E-01 0.45229E-01 0.63098E-01 0.94220E-01 0.13854     0.18818     0.23191    
 0.26364     0.28319     0.29233     0.29233     0.28318     0.26364     0.23190     0.18818     0.71519E-01 0.52907E-01
 0.40628E-01 0.34503E-01 0.33494E-01 0.36645E-01 0.43167E-01 0.52540E-01 0.65075E-01 0.82608E-01 0.10885     0.14914    
 0.20892     0.29004     0.38565     0.47956     0.55468     0.60392     0.63118     0.64450     0.65033     0.65198    
 0.65033     0.64450     0.63118     0.60392     0.55468     0.47956     0.38565     0.29004     0.20892     0.14914    
 0.10885     0.82608E-01 0.65075E-01 0.52540E-01 0.43167E-01 0.36645E-01 0.33494E-01 0.34503E-01 0.40627E-01 0.52907E-01
 0.71518E-01 0.94220E-01 0.11650     0.13442     0.14655     0.15332     0.15547     0.15332     0.14655     0.13442    
 0.11650     0.94220E-01 0.43179E-01 0.35919E-01 0.32190E-01 0.32156E-01 0.35588E-01 0.42189E-01 0.51852E-01 0.65107E-01
 0.83671E-01 0.11084     0.15142     0.21047     0.29004     0.38429     0.47839     0.55578     0.60837     0.63864    
 0.65394     0.66102     0.66383     0.66383     0.66102     0.65394     0.63864     0.60837     0.55578     0.47839    
 0.38429     0.29004     0.21047     0.15142     0.11084     0.83671E-01 0.65108E-01 0.51853E-01 0.42189E-01 0.35588E-01
 0.32156E-01 0.32190E-01 0.35919E-01 0.43179E-01 0.52906E-01 0.63098E-01 0.71775E-01 0.77988E-01 0.81782E-01 0.83544E-01
 0.83544E-01 0.81782E-01 0.77988E-01 0.71775E-01 0.63099E-01 0.52907E-01 0.32262E-01 0.30697E-01 0.31793E-01 0.35719E-01
 0.42524E-01 0.52469E-01 0.66404E-01 0.86116E-01 0.11461     0.15610     0.21509     0.29336     0.38565     0.47839    
 0.55605     0.61043     0.64284     0.65973     0.66769     0.67116     0.67216     0.67116     0.66769     0.65973    
 0.64285     0.61043     0.55605     0.47839     0.38565     0.29336     0.21509     0.15610     0.11461     0.86116E-01
 0.66404E-01 0.52469E-01 0.42524E-01 0.35719E-01 0.31793E-01 0.30697E-01 0.32262E-01 0.35919E-01 0.40627E-01 0.45229E-01
 0.48963E-01 0.51592E-01 0.53139E-01 0.53651E-01 0.53139E-01 0.51592E-01 0.48963E-01 0.45229E-01 0.40627E-01 0.35919E-01
 0.30743E-01 0.32905E-01 0.37500E-01 0.44745E-01 0.55135E-01 0.69805E-01 0.90703E-01 0.12065     0.16334     0.22257    
 0.29962     0.38945     0.47956     0.55578     0.61043     0.64422     0.66250     0.67130     0.67519     0.67668    
 0.67668     0.67519     0.67130     0.66250     0.64422     0.61043     0.55578     0.47956     0.38945     0.29962    
 0.22257     0.16334     0.12065     0.90703E-01 0.69805E-01 0.55135E-01 0.44745E-01 0.37500E-01 0.32906E-01 0.30743E-01
 0.30697E-01 0.32190E-01 0.34503E-01 0.37011E-01 0.39288E-01 0.41035E-01 0.41997E-01 0.41997E-01 0.41035E-01 0.39288E-01
 0.37011E-01 0.34503E-01 0.32190E-01 0.30697E-01 0.35982E-01 0.41374E-01 0.49357E-01 0.60510E-01 0.76104E-01 0.98192E-01
 0.12948     0.17318     0.23241     0.30789     0.39465     0.48119     0.55468     0.60837     0.64285     0.66250    
 0.67244     0.67693     0.67873     0.67922     0.67873     0.67693     0.67244     0.66250     0.64285     0.60837    
 0.55468     0.48118     0.39465     0.30789     0.23241     0.17318     0.12948     0.98192E-01 0.76104E-01 0.60510E-01
 0.49357E-01 0.41373E-01 0.35982E-01 0.32906E-01 0.31793E-01 0.32156E-01 0.33494E-01 0.35350E-01 0.37254E-01 0.38700E-01
 0.39243E-01 0.38700E-01 0.37254E-01 0.35350E-01 0.33494E-01 0.32156E-01 0.31793E-01 0.32905E-01 0.47704E-01 0.56778E-01
 0.69114E-01 0.85896E-01 0.10910     0.14129     0.18532     0.24366     0.31659     0.39938     0.48161     0.55179    
 0.60392     0.63864     0.65973     0.67130     0.67693     0.67930     0.68011     0.68011     0.67930     0.67693    
 0.67130     0.65973     0.63864     0.60392     0.55179     0.48161     0.39938     0.31659     0.24366     0.18532    
 0.14129     0.10910     0.85896E-01 0.69114E-01 0.56778E-01 0.47704E-01 0.41373E-01 0.37500E-01 0.35719E-01 0.35588E-01
 0.36645E-01 0.38366E-01 0.40110E-01 0.41209E-01 0.41209E-01 0.40110E-01 0.38366E-01 0.36645E-01 0.35588E-01 0.35719E-01
 0.37500E-01 0.41374E-01 0.67280E-01 0.81171E-01 0.99272E-01 0.12324     0.15548     0.19858     0.25459     0.32348    
 0.40107     0.47835     0.54523     0.59605     0.63118     0.65394     0.66769     0.67519     0.67873     0.68011    
 0.68045     0.68011     0.67873     0.67519     0.66769     0.65394     0.63118     0.59605     0.54523     0.47835    
 0.40107     0.32348     0.25459     0.19858     0.15548     0.12324     0.99272E-01 0.81172E-01 0.67280E-01 0.56778E-01
 0.49357E-01 0.44745E-01 0.42524E-01 0.42189E-01 0.43167E-01 0.44763E-01 0.46185E-01 0.46751E-01 0.46185E-01 0.44763E-01
 0.43167E-01 0.42189E-01 0.42524E-01 0.44745E-01 0.49357E-01 0.56778E-01 0.96620E-01 0.11567     0.13949     0.17030    
 0.21071     0.26258     0.32584     0.39699     0.46877     0.53264     0.58306     0.61947     0.64450     0.66102    
 0.67116     0.67668     0.67922     0.68011     0.68011     0.67922     0.67668     0.67116     0.66102     0.64450    
 0.61947     0.58306     0.53264     0.46877     0.39699     0.32584     0.26258     0.21071     0.17030     0.13949    
 0.11567     0.96621E-01 0.81172E-01 0.69114E-01 0.60510E-01 0.55135E-01 0.52469E-01 0.51852E-01 0.52540E-01 0.53703E-01
 0.54540E-01 0.54540E-01 0.53703E-01 0.52540E-01 0.51852E-01 0.52469E-01 0.55135E-01 0.60510E-01 0.69114E-01 0.81171E-01
 0.13456     0.15661     0.18398     0.21946     0.26519     0.32129     0.38510     0.45101     0.51216     0.56312    
 0.60204     0.63033     0.65033     0.66383     0.67216     0.67668     0.67873     0.67930     0.67873     0.67668    
 0.67216     0.66383     0.65033     0.63033     0.60204     0.56312     0.51216     0.45101     0.38510     0.32129    
 0.26519     0.21946     0.18398     0.15661     0.13456     0.11567     0.99272E-01 0.85896E-01 0.76104E-01 0.69805E-01
 0.66404E-01 0.65107E-01 0.65075E-01 0.65488E-01 0.65708E-01 0.65488E-01 0.65075E-01 0.65107E-01 0.66404E-01 0.69805E-01
 0.76104E-01 0.85896E-01 0.99272E-01 0.11567     0.17493     0.19670     0.22504     0.26253     0.30987     0.36535    
 0.42498     0.48330     0.53518     0.57759     0.61021     0.63450     0.65198     0.66383     0.67116     0.67519    
 0.67693     0.67693     0.67519     0.67116     0.66383     0.65198     0.63450     0.61021     0.57759     0.53518    
 0.48330     0.42498     0.36535     0.30987     0.26253     0.22504     0.19670     0.17493     0.15661     0.13949    
 0.12324     0.10910     0.98192E-01 0.90703E-01 0.86116E-01 0.83671E-01 0.82607E-01 0.82272E-01 0.82272E-01 0.82607E-01
 0.83671E-01 0.86116E-01 0.90703E-01 0.98192E-01 0.10910     0.12324     0.13949     0.15661     0.21109     0.23064    
 0.25821     0.29513     0.34080     0.39288     0.44736     0.49951     0.54543     0.58308     0.61244     0.63450    
 0.65033     0.66102     0.66769     0.67130     0.67244     0.67130     0.66769     0.66102     0.65033     0.63450    
 0.61244     0.58308     0.54543     0.49951     0.44736     0.39288     0.34080     0.29513     0.25821     0.23064    
 0.21109     0.19670     0.18398     0.17030     0.15548     0.14129     0.12948     0.12065     0.11461     0.11084    
 0.10885     0.10824     0.10885     0.11084     0.11461     0.12065     0.12948     0.14129     0.15548     0.17030    
 0.18398     0.19670     0.24031     0.25706     0.28249     0.31686     0.35931     0.40761     0.45795     0.50599    
 0.54827     0.58308     0.61021     0.63033     0.64450     0.65394     0.65973     0.66250     0.66250     0.65973    
 0.65394     0.64450     0.63033     0.61021     0.58308     0.54827     0.50599     0.45795     0.40761     0.35931    
 0.31686     0.28249     0.25706     0.24031     0.23064     0.22504     0.21946     0.21071     0.19858     0.18532    
 0.17318     0.16334     0.15610     0.15142     0.14914     0.14914     0.15142     0.15610     0.16334     0.17318    
 0.18532     0.19858     0.21071     0.21946     0.22504     0.23064     0.26256     0.27626     0.29863     0.32969    
 0.36882     0.41387     0.46103     0.50599     0.54543     0.57759     0.60204     0.61947     0.63118     0.63864    
 0.64285     0.64422     0.64285     0.63864     0.63118     0.61947     0.60204     0.57759     0.54543     0.50599    
 0.46103     0.41387     0.36882     0.32969     0.29863     0.27626     0.26256     0.25706     0.25821     0.26253    
 0.26519     0.26258     0.25459     0.24366     0.23241     0.22257     0.21509     0.21047     0.20892     0.21047    
 0.21509     0.22257     0.23241     0.24366     0.25459     0.26258     0.26519     0.26253     0.25821     0.25706    
 0.27831     0.28883     0.30787     0.33566     0.37175     0.41387     0.45795     0.49951     0.53518     0.56312    
 0.58306     0.59605     0.60392     0.60837     0.61043     0.61043     0.60837     0.60392     0.59605     0.58306    
 0.56312     0.53518     0.49951     0.45795     0.41387     0.37175     0.33566     0.30787     0.28883     0.27831    
 0.27626     0.28249     0.29513     0.30987     0.32129     0.32584     0.32348     0.31659     0.30789     0.29962    
 0.29336     0.29004     0.29004     0.29336     0.29962     0.30789     0.31659     0.32348     0.32584     0.32129    
 0.30987     0.29513     0.28249     0.27626     0.28777     0.29507     0.31089     0.33566     0.36882     0.40761    
 0.44736     0.48330     0.51216     0.53264     0.54523     0.55179     0.55468     0.55578     0.55605     0.55578    
 0.55468     0.55179     0.54523     0.53264     0.51216     0.48330     0.44736     0.40761     0.36882     0.33566    
 0.31089     0.29507     0.28777     0.28883     0.29863     0.31686     0.34080     0.36535     0.38510     0.39699    
 0.40107     0.39938     0.39465     0.38945     0.38565     0.38429     0.38565     0.38945     0.39465     0.39938    
 0.40107     0.39699     0.38510     0.36535     0.34080     0.31686     0.29863     0.28883     0.29092     0.29507    
 0.30787     0.32969     0.35931     0.39288     0.42498     0.45101     0.46876     0.47835     0.48161     0.48118    
 0.47956     0.47839     0.47839     0.47956     0.48118     0.48161     0.47835     0.46877     0.45101     0.42498    
 0.39288     0.35931     0.32969     0.30787     0.29507     0.29092     0.29507     0.30787     0.32969     0.35931    
 0.39288     0.42498     0.45101     0.46876     0.47835     0.48161     0.48118     0.47956     0.47839     0.47839    
 0.47956     0.48119     0.48161     0.47835     0.46877     0.45101     0.42498     0.39288     0.35931     0.32969    
 0.30787     0.29507     0.28777     0.28883     0.29863     0.31686     0.34080     0.36535     0.38510     0.39699    
 0.40107     0.39938     0.39465     0.38945     0.38565     0.38429     0.38565     0.38945     0.39465     0.39938    
 0.40107     0.39699     0.38510     0.36535     0.34080     0.31686     0.29863     0.28883     0.28777     0.29507    
 0.31089     0.33566     0.36882     0.40761     0.44736     0.48330     0.51216     0.53264     0.54523     0.55179    
 0.55468     0.55578     0.55605     0.55578     0.55468     0.55179     0.54523     0.53264     0.51216     0.48330    
 0.44736     0.40761     0.36882     0.33566     0.31089     0.29507     0.27831     0.27626     0.28249     0.29513    
 0.30986     0.32129     0.32584     0.32348     0.31659     0.30789     0.29962     0.29336     0.29004     0.29004    
 0.29336     0.29962     0.30789     0.31659     0.32348     0.32584     0.32129     0.30987     0.29513     0.28249    
 0.27626     0.27831     0.28883     0.30787     0.33566     0.37175     0.41387     0.45795     0.49951     0.53518    
 0.56312     0.58306     0.59605     0.60392     0.60837     0.61043     0.61043     0.60837     0.60392     0.59605    
 0.58306     0.56312     0.53518     0.49951     0.45795     0.41387     0.37175     0.33566     0.30787     0.28883    
 0.26256     0.25706     0.25821     0.26253     0.26519     0.26258     0.25459     0.24366     0.23241     0.22257    
 0.21509     0.21047     0.20892     0.21047     0.21509     0.22257     0.23241     0.24366     0.25459     0.26258    
 0.26519     0.26253     0.25821     0.25706     0.26256     0.27626     0.29863     0.32969     0.36882     0.41387    
 0.46103     0.50599     0.54543     0.57759     0.60204     0.61947     0.63118     0.63864     0.64285     0.64422    
 0.64285     0.63864     0.63118     0.61947     0.60205     0.57759     0.54543     0.50599     0.46103     0.41387    
 0.36882     0.32969     0.29863     0.27626     0.24031     0.23064     0.22504     0.21946     0.21071     0.19858    
 0.18532     0.17318     0.16334     0.15610     0.15142     0.14914     0.14914     0.15142     0.15610     0.16334    
 0.17318     0.18532     0.19858     0.21071     0.21946     0.22504     0.23064     0.24031     0.25706     0.28249    
 0.31686     0.35931     0.40761     0.45795     0.50599     0.54827     0.58308     0.61021     0.63033     0.64450    
 0.65394     0.65973     0.66250     0.66250     0.65973     0.65394     0.64450     0.63033     0.61021     0.58308    
 0.54827     0.50599     0.45795     0.40761     0.35931     0.31686     0.28249     0.25706     0.21109     0.19670    
 0.18398     0.17030     0.15548     0.14129     0.12948     0.12065     0.11461     0.11084     0.10885     0.10824    
 0.10885     0.11084     0.11461     0.12065     0.12948     0.14129     0.15548     0.17030     0.18398     0.19670    
 0.21109     0.23064     0.25821     0.29513     0.34080     0.39288     0.44736     0.49951     0.54543     0.58308    
 0.61244     0.63450     0.65033     0.66102     0.66769     0.67130     0.67244     0.67130     0.66769     0.66102    
 0.65033     0.63450     0.61244     0.58308     0.54543     0.49951     0.44736     0.39288     0.34080     0.29513    
 0.25821     0.23064     0.17493     0.15661     0.13949     0.12324     0.10910     0.98192E-01 0.90703E-01 0.86116E-01
 0.83671E-01 0.82607E-01 0.82272E-01 0.82272E-01 0.82607E-01 0.83671E-01 0.86116E-01 0.90703E-01 0.98192E-01 0.10910    
 0.12324     0.13949     0.15661     0.17493     0.19670     0.22504     0.26253     0.30987     0.36535     0.42498    
 0.48330     0.53518     0.57759     0.61021     0.63450     0.65198     0.66383     0.67116     0.67519     0.67693    
 0.67693     0.67519     0.67116     0.66383     0.65198     0.63450     0.61021     0.57759     0.53518     0.48330    
 0.42498     0.36535     0.30986     0.26253     0.22504     0.19670     0.13456     0.11567     0.99272E-01 0.85896E-01
 0.76104E-01 0.69805E-01 0.66403E-01 0.65107E-01 0.65075E-01 0.65488E-01 0.65708E-01 0.65488E-01 0.65075E-01 0.65107E-01
 0.66404E-01 0.69805E-01 0.76104E-01 0.85896E-01 0.99272E-01 0.11567     0.13456     0.15661     0.18398     0.21946    
 0.26519     0.32129     0.38510     0.45101     0.51216     0.56312     0.60204     0.63033     0.65033     0.66383    
 0.67216     0.67668     0.67873     0.67930     0.67873     0.67668     0.67216     0.66383     0.65033     0.63033    
 0.60205     0.56312     0.51216     0.45101     0.38510     0.32129     0.26519     0.21946     0.18398     0.15661    
 0.96620E-01 0.81171E-01 0.69114E-01 0.60509E-01 0.55135E-01 0.52469E-01 0.51852E-01 0.52540E-01 0.53703E-01 0.54540E-01
 0.54540E-01 0.53703E-01 0.52540E-01 0.51852E-01 0.52469E-01 0.55135E-01 0.60510E-01 0.69114E-01 0.81172E-01 0.96621E-01
 0.11567     0.13949     0.17030     0.21071     0.26258     0.32584     0.39699     0.46876     0.53264     0.58306    
 0.61947     0.64450     0.66102     0.67116     0.67668     0.67922     0.68011     0.68011     0.67922     0.67668    
 0.67116     0.66102     0.64450     0.61947     0.58306     0.53264     0.46877     0.39699     0.32584     0.26258    
 0.21071     0.17030     0.13949     0.11567     0.67280E-01 0.56778E-01 0.49357E-01 0.44745E-01 0.42524E-01 0.42189E-01
 0.43167E-01 0.44763E-01 0.46185E-01 0.46751E-01 0.46185E-01 0.44763E-01 0.43167E-01 0.42189E-01 0.42524E-01 0.44745E-01
 0.49357E-01 0.56778E-01 0.67280E-01 0.81172E-01 0.99272E-01 0.12324     0.15548     0.19858     0.25459     0.32348    
 0.40107     0.47835     0.54523     0.59605     0.63118     0.65394     0.66769     0.67519     0.67873     0.68011    
 0.68045     0.68011     0.67873     0.67519     0.66769     0.65394     0.63118     0.59605     0.54523     0.47835    
 0.40107     0.32348     0.25459     0.19858     0.15548     0.12324     0.99272E-01 0.81171E-01 0.47704E-01 0.41374E-01
 0.37500E-01 0.35719E-01 0.35588E-01 0.36645E-01 0.38366E-01 0.40110E-01 0.41209E-01 0.41209E-01 0.40110E-01 0.38366E-01
 0.36645E-01 0.35588E-01 0.35719E-01 0.37500E-01 0.41373E-01 0.47704E-01 0.56778E-01 0.69114E-01 0.85896E-01 0.10910    
 0.14129     0.18532     0.24366     0.31659     0.39938     0.48161     0.55179     0.60392     0.63864     0.65973    
 0.67130     0.67693     0.67930     0.68011     0.68011     0.67930     0.67693     0.67130     0.65973     0.63864    
 0.60392     0.55179     0.48161     0.39938     0.31659     0.24366     0.18532     0.14129     0.10910     0.85896E-01
 0.69114E-01 0.56778E-01 0.35982E-01 0.32905E-01 0.31793E-01 0.32156E-01 0.33494E-01 0.35350E-01 0.37254E-01 0.38700E-01
 0.39243E-01 0.38700E-01 0.37254E-01 0.35350E-01 0.33494E-01 0.32156E-01 0.31793E-01 0.32906E-01 0.35982E-01 0.41373E-01
 0.49357E-01 0.60510E-01 0.76104E-01 0.98192E-01 0.12948     0.17318     0.23241     0.30789     0.39465     0.48118    
 0.55468     0.60837     0.64284     0.66250     0.67244     0.67693     0.67873     0.67922     0.67873     0.67693    
 0.67244     0.66250     0.64285     0.60837     0.55468     0.48119     0.39465     0.30789     0.23241     0.17318    
 0.12948     0.98192E-01 0.76104E-01 0.60509E-01 0.49357E-01 0.41373E-01 0.30743E-01 0.30697E-01 0.32190E-01 0.34503E-01
 0.37011E-01 0.39288E-01 0.41036E-01 0.41997E-01 0.41997E-01 0.41036E-01 0.39288E-01 0.37011E-01 0.34503E-01 0.32190E-01
 0.30697E-01 0.30743E-01 0.32906E-01 0.37500E-01 0.44745E-01 0.55135E-01 0.69805E-01 0.90703E-01 0.12065     0.16334    
 0.22257     0.29962     0.38945     0.47956     0.55578     0.61043     0.64422     0.66250     0.67130     0.67519    
 0.67668     0.67668     0.67519     0.67130     0.66250     0.64422     0.61043     0.55578     0.47956     0.38945    
 0.29962     0.22257     0.16334     0.12065     0.90703E-01 0.69805E-01 0.55135E-01 0.44745E-01 0.37500E-01 0.32905E-01
 0.32262E-01 0.35919E-01 0.40628E-01 0.45229E-01 0.48963E-01 0.51592E-01 0.53139E-01 0.53651E-01 0.53139E-01 0.51592E-01
 0.48963E-01 0.45229E-01 0.40627E-01 0.35919E-01 0.32262E-01 0.30697E-01 0.31793E-01 0.35719E-01 0.42524E-01 0.52469E-01
 0.66404E-01 0.86116E-01 0.11461     0.15610     0.21509     0.29336     0.38565     0.47839     0.55605     0.61043    
 0.64284     0.65973     0.66769     0.67116     0.67216     0.67116     0.66769     0.65973     0.64285     0.61043    
 0.55605     0.47839     0.38565     0.29336     0.21509     0.15610     0.11461     0.86116E-01 0.66403E-01 0.52469E-01
 0.42524E-01 0.35719E-01 0.31793E-01 0.30697E-01 0.43179E-01 0.52907E-01 0.63099E-01 0.71775E-01 0.77988E-01 0.81782E-01
 0.83544E-01 0.83544E-01 0.81782E-01 0.77988E-01 0.71775E-01 0.63098E-01 0.52906E-01 0.43179E-01 0.35919E-01 0.32190E-01
 0.32156E-01 0.35588E-01 0.42189E-01 0.51853E-01 0.65107E-01 0.83671E-01 0.11084     0.15142     0.21047     0.29004    
 0.38429     0.47839     0.55578     0.60837     0.63864     0.65394     0.66102     0.66383     0.66383     0.66102    
 0.65394     0.63864     0.60837     0.55578     0.47839     0.38429     0.29004     0.21047     0.15142     0.11084    
 0.83671E-01 0.65107E-01 0.51852E-01 0.42189E-01 0.35588E-01 0.32156E-01 0.32190E-01 0.35919E-01 0.71519E-01 0.94220E-01
 0.11650     0.13442     0.14655     0.15332     0.15547     0.15332     0.14655     0.13442     0.11650     0.94220E-01
 0.71518E-01 0.52906E-01 0.40627E-01 0.34503E-01 0.33494E-01 0.36645E-01 0.43167E-01 0.52540E-01 0.65075E-01 0.82608E-01
 0.10885     0.14914     0.20892     0.29004     0.38565     0.47956     0.55468     0.60392     0.63118     0.64450    
 0.65033     0.65198     0.65033     0.64450     0.63118     0.60392     0.55468     0.47956     0.38565     0.29004    
 0.20892     0.14914     0.10885     0.82607E-01 0.65075E-01 0.52540E-01 0.43167E-01 0.36645E-01 0.33494E-01 0.34503E-01
 0.40628E-01 0.52907E-01 0.13854     0.18818     0.23190     0.26364     0.28318     0.29233     0.29233     0.28319    
 0.26364     0.23191     0.18818     0.13854     0.94220E-01 0.63098E-01 0.45229E-01 0.37011E-01 0.35350E-01 0.38366E-01
 0.44763E-01 0.53703E-01 0.65488E-01 0.82272E-01 0.10824     0.14914     0.21047     0.29336     0.38945     0.48118    
 0.55179     0.59605     0.61947     0.63033     0.63450     0.63450     0.63033     0.61947     0.59605     0.55179    
 0.48119     0.38945     0.29336     0.21047     0.14914     0.10824     0.82272E-01 0.65488E-01 0.53703E-01 0.44763E-01
 0.38366E-01 0.35350E-01 0.37011E-01 0.45229E-01 0.63099E-01 0.94220E-01 0.27465     0.35237     0.40863     0.44434    
 0.46389     0.47011     0.46389     0.44434     0.40863     0.35237     0.27465     0.18818     0.11650     0.71775E-01
 0.48963E-01 0.39288E-01 0.37254E-01 0.40110E-01 0.46185E-01 0.54540E-01 0.65708E-01 0.82272E-01 0.10885     0.15142    
 0.21509     0.29962     0.39465     0.48161     0.54523     0.58306     0.60204     0.61021     0.61244     0.61021    
 0.60204     0.58306     0.54523     0.48161     0.39465     0.29962     0.21509     0.15142     0.10885     0.82272E-01
 0.65708E-01 0.54540E-01 0.46185E-01 0.40110E-01 0.37254E-01 0.39288E-01 0.48963E-01 0.71775E-01 0.11650     0.18818    