LaBr                                    
   1.00000000000000     
     2.785625    0.000000    0.000000
     1.392812    2.412422    0.000000
     0.000000    0.000000    3.867488
   Na
     4
Direct
  0.000000  0.000000  0.000000
  0.333333  0.333333  0.250000
  0.000000  0.000000  0.500000
  0.666667  0.666667  0.750000
 
   28   28   40
 0.37918     0.46643     0.64747     0.77303     0.81266     0.77658     0.61633     0.31405     0.12047     0.66357E-01
 0.69010E-01 0.10913     0.16366     0.19636     0.20512     0.19636     0.16366     0.10913     0.69010E-01 0.66357E-01
 0.12047     0.31405     0.61633     0.77658     0.81266     0.77303     0.64747     0.46643     0.46643     0.59967    
 0.73929     0.80592     0.80207     0.70670     0.45169     0.18342     0.80991E-01 0.63071E-01 0.86872E-01 0.13935    
 0.18374     0.20201     0.20201     0.18374     0.13935     0.86871E-01 0.63071E-01 0.80991E-01 0.18342     0.45169    
 0.70670     0.80207     0.80592     0.73929     0.59967     0.46643     0.64747     0.73929     0.80080     0.80918    
 0.74647     0.54777     0.25529     0.10327     0.64628E-01 0.74159E-01 0.11751     0.16668     0.19263     0.19924    
 0.19263     0.16668     0.11751     0.74159E-01 0.64628E-01 0.10327     0.25529     0.54777     0.74647     0.80918    
 0.80080     0.73929     0.64747     0.59967     0.77303     0.80592     0.80918     0.75743     0.59275     0.31075    
 0.12628     0.69566E-01 0.68102E-01 0.10129     0.14880     0.17841     0.18880     0.18880     0.17841     0.14880    
 0.10129     0.68102E-01 0.69566E-01 0.12628     0.31075     0.59275     0.75743     0.80918     0.80592     0.77303    
 0.73929     0.73929     0.81266     0.80207     0.74647     0.59275     0.33115     0.14102     0.74322E-01 0.65665E-01
 0.90799E-01 0.13364     0.16328     0.17461     0.17733     0.17461     0.16328     0.13364     0.90799E-01 0.65665E-01
 0.74322E-01 0.14102     0.33115     0.59275     0.74647     0.80207     0.81266     0.80592     0.80080     0.80592    
 0.77658     0.70670     0.54777     0.31075     0.14102     0.76246E-01 0.64901E-01 0.85074E-01 0.12324     0.15112    
 0.16166     0.16485     0.16485     0.16165     0.15112     0.12324     0.85074E-01 0.64901E-01 0.76246E-01 0.14102    
 0.31075     0.54777     0.70670     0.77658     0.80207     0.80918     0.80918     0.80207     0.61633     0.45169    
 0.25529     0.12628     0.74322E-01 0.64901E-01 0.83275E-01 0.11812     0.14373     0.15275     0.15526     0.15604    
 0.15526     0.15275     0.14373     0.11812     0.83275E-01 0.64901E-01 0.74322E-01 0.12628     0.25529     0.45169    
 0.61633     0.70670     0.74647     0.75743     0.74647     0.70670     0.31405     0.18342     0.10327     0.69566E-01
 0.65665E-01 0.85074E-01 0.11812     0.14130     0.14840     0.14961     0.15018     0.15018     0.14961     0.14840    
 0.14130     0.11812     0.85074E-01 0.65665E-01 0.69566E-01 0.10327     0.18342     0.31405     0.45169     0.54777    
 0.59275     0.59275     0.54777     0.45170     0.12047     0.80991E-01 0.64628E-01 0.68102E-01 0.90799E-01 0.12324    
 0.14373     0.14840     0.14777     0.14734     0.14735     0.14734     0.14777     0.14840     0.14373     0.12324    
 0.90799E-01 0.68102E-01 0.64628E-01 0.80991E-01 0.12047     0.18342     0.25529     0.31075     0.33115     0.31075    
 0.25529     0.18342     0.66357E-01 0.63071E-01 0.74159E-01 0.10129     0.13364     0.15112     0.15275     0.14961    
 0.14734     0.14646     0.14646     0.14734     0.14961     0.15275     0.15112     0.13364     0.10129     0.74159E-01
 0.63071E-01 0.66357E-01 0.80991E-01 0.10327     0.12628     0.14102     0.14102     0.12628     0.10327     0.80991E-01
 0.69010E-01 0.86872E-01 0.11751     0.14880     0.16328     0.16166     0.15526     0.15018     0.14735     0.14646    
 0.14735     0.15018     0.15526     0.16166     0.16328     0.14880     0.11751     0.86872E-01 0.69010E-01 0.63071E-01
 0.64628E-01 0.69566E-01 0.74322E-01 0.76245E-01 0.74322E-01 0.69566E-01 0.64628E-01 0.63071E-01 0.10913     0.13935    
 0.16668     0.17841     0.17461     0.16485     0.15604     0.15018     0.14734     0.14734     0.15018     0.15604    
 0.16485     0.17461     0.17841     0.16668     0.13935     0.10913     0.86872E-01 0.74159E-01 0.68102E-01 0.65665E-01
 0.64901E-01 0.64901E-01 0.65665E-01 0.68102E-01 0.74160E-01 0.86872E-01 0.16366     0.18374     0.19263     0.18880    
 0.17733     0.16485     0.15526     0.14961     0.14777     0.14961     0.15526     0.16485     0.17733     0.18880    
 0.19263     0.18374     0.16366     0.13935     0.11751     0.10129     0.90799E-01 0.85074E-01 0.83275E-01 0.85074E-01
 0.90799E-01 0.10129     0.11751     0.13935     0.19636     0.20201     0.19924     0.18880     0.17461     0.16165    
 0.15275     0.14840     0.14840     0.15275     0.16166     0.17461     0.18880     0.19924     0.20201     0.19636    
 0.18374     0.16668     0.14880     0.13364     0.12324     0.11812     0.11812     0.12324     0.13364     0.14880    
 0.16668     0.18374     0.20512     0.20201     0.19263     0.17841     0.16328     0.15112     0.14373     0.14130    
 0.14373     0.15112     0.16328     0.17841     0.19263     0.20201     0.20512     0.20201     0.19263     0.17841    
 0.16328     0.15112     0.14373     0.14130     0.14373     0.15112     0.16328     0.17841     0.19263     0.20201    
 0.19636     0.18374     0.16668     0.14880     0.13364     0.12324     0.11812     0.11812     0.12324     0.13364    
 0.14880     0.16668     0.18374     0.19636     0.20201     0.19924     0.18880     0.17461     0.16166     0.15275    
 0.14840     0.14840     0.15275     0.16166     0.17461     0.18880     0.19924     0.20201     0.16366     0.13935    
 0.11751     0.10129     0.90799E-01 0.85074E-01 0.83275E-01 0.85074E-01 0.90799E-01 0.10129     0.11751     0.13935    
 0.16366     0.18374     0.19263     0.18880     0.17733     0.16485     0.15526     0.14961     0.14777     0.14961    
 0.15526     0.16485     0.17733     0.18880     0.19263     0.18374     0.10913     0.86871E-01 0.74159E-01 0.68102E-01
 0.65665E-01 0.64901E-01 0.64901E-01 0.65665E-01 0.68102E-01 0.74159E-01 0.86872E-01 0.10913     0.13935     0.16668    
 0.17841     0.17461     0.16485     0.15604     0.15018     0.14734     0.14734     0.15018     0.15604     0.16485    
 0.17461     0.17841     0.16668     0.13935     0.69010E-01 0.63071E-01 0.64628E-01 0.69566E-01 0.74322E-01 0.76246E-01
 0.74322E-01 0.69566E-01 0.64628E-01 0.63071E-01 0.69010E-01 0.86872E-01 0.11751     0.14880     0.16328     0.16166    
 0.15526     0.15018     0.14735     0.14646     0.14735     0.15018     0.15526     0.16166     0.16328     0.14880    
 0.11751     0.86872E-01 0.66357E-01 0.80991E-01 0.10327     0.12628     0.14102     0.14102     0.12628     0.10327    
 0.80991E-01 0.66357E-01 0.63071E-01 0.74159E-01 0.10129     0.13364     0.15112     0.15275     0.14961     0.14734    
 0.14646     0.14646     0.14734     0.14961     0.15275     0.15112     0.13364     0.10129     0.74159E-01 0.63071E-01
 0.12047     0.18342     0.25529     0.31075     0.33115     0.31075     0.25529     0.18342     0.12047     0.80991E-01
 0.64628E-01 0.68102E-01 0.90799E-01 0.12324     0.14373     0.14840     0.14777     0.14734     0.14735     0.14734    
 0.14777     0.14840     0.14373     0.12324     0.90799E-01 0.68102E-01 0.64628E-01 0.80991E-01 0.31405     0.45169    
 0.54777     0.59275     0.59275     0.54777     0.45169     0.31405     0.18342     0.10327     0.69566E-01 0.65665E-01
 0.85074E-01 0.11812     0.14130     0.14840     0.14961     0.15018     0.15018     0.14961     0.14840     0.14130    
 0.11812     0.85074E-01 0.65665E-01 0.69566E-01 0.10327     0.18342     0.61633     0.70670     0.74647     0.75743    
 0.74647     0.70670     0.61633     0.45169     0.25529     0.12628     0.74322E-01 0.64901E-01 0.83275E-01 0.11812    
 0.14373     0.15275     0.15526     0.15604     0.15526     0.15275     0.14373     0.11812     0.83275E-01 0.64901E-01
 0.74322E-01 0.12628     0.25529     0.45169     0.77658     0.80207     0.80918     0.80918     0.80207     0.77658    
 0.70670     0.54777     0.31075     0.14102     0.76245E-01 0.64901E-01 0.85074E-01 0.12324     0.15112     0.16166    
 0.16485     0.16485     0.16166     0.15112     0.12324     0.85074E-01 0.64901E-01 0.76246E-01 0.14102     0.31075    
 0.54777     0.70670     0.81266     0.80592     0.80080     0.80592     0.81266     0.80207     0.74647     0.59275    
 0.33115     0.14102     0.74322E-01 0.65665E-01 0.90799E-01 0.13364     0.16328     0.17461     0.17733     0.17461    
 0.16328     0.13364     0.90799E-01 0.65665E-01 0.74322E-01 0.14102     0.33115     0.59275     0.74647     0.80207    
 0.77303     0.73929     0.73929     0.77303     0.80592     0.80918     0.75743     0.59275     0.31075     0.12628    
 0.69566E-01 0.68102E-01 0.10129     0.14880     0.17841     0.18880     0.18880     0.17841     0.14880     0.10129    
 0.68102E-01 0.69566E-01 0.12628     0.31075     0.59275     0.75743     0.80918     0.80592     0.64747     0.59967    
 0.64747     0.73929     0.80080     0.80918     0.74647     0.54777     0.25529     0.10327     0.64628E-01 0.74160E-01
 0.11751     0.16668     0.19263     0.19924     0.19263     0.16668     0.11751     0.74159E-01 0.64628E-01 0.10327    
 0.25529     0.54777     0.74647     0.80918     0.80080     0.73929     0.46643     0.46643     0.59967     0.73929    
 0.80592     0.80207     0.70670     0.45170     0.18342     0.80991E-01 0.63071E-01 0.86872E-01 0.13935     0.18374    
 0.20201     0.20201     0.18374     0.13935     0.86872E-01 0.63071E-01 0.80991E-01 0.18342     0.45169     0.70670    
 0.80207     0.80592     0.73929     0.59967     0.46192     0.53619     0.68361     0.78430     0.81276     0.76856    
 0.59639     0.29510     0.11468     0.65518E-01 0.69902E-01 0.10970     0.16011     0.18867     0.19610     0.18867    
 0.16011     0.10970     0.69902E-01 0.65518E-01 0.11468     0.29510     0.59639     0.76856     0.81276     0.78430    
 0.68361     0.53619     0.53619     0.64526     0.75754     0.80989     0.79857     0.69481     0.43307     0.17330    
 0.76553E-01 0.59052E-01 0.78106E-01 0.11673     0.14537     0.15586     0.15586     0.14537     0.11672     0.78106E-01
 0.59052E-01 0.76552E-01 0.17329     0.43307     0.69481     0.79857     0.80989     0.75754     0.64526     0.53619    
 0.68361     0.75754     0.80636     0.80770     0.73877     0.53312     0.24308     0.95903E-01 0.57456E-01 0.61367E-01
 0.87346E-01 0.11239     0.12342     0.12587     0.12342     0.11239     0.87346E-01 0.61367E-01 0.57456E-01 0.95902E-01
 0.24308     0.53312     0.73877     0.80770     0.80636     0.75754     0.68361     0.64504     0.78430     0.80989    
 0.80770     0.75095     0.58071     0.29838     0.11681     0.60035E-01 0.53304E-01 0.69656E-01 0.90504E-01 0.10145    
 0.10486     0.10486     0.10145     0.90504E-01 0.69656E-01 0.53304E-01 0.60035E-01 0.11681     0.29838     0.58071    
 0.75095     0.80770     0.80989     0.78430     0.75709     0.75709     0.81276     0.79857     0.73877     0.58071    
 0.31897     0.13047     0.63243E-01 0.49812E-01 0.59996E-01 0.77677E-01 0.88785E-01 0.93173E-01 0.94361E-01 0.93173E-01
 0.88785E-01 0.77677E-01 0.59995E-01 0.49812E-01 0.63243E-01 0.13047     0.31897     0.58071     0.73877     0.79857    
 0.81276     0.80911     0.80534     0.80911     0.76856     0.69481     0.53312     0.29838     0.13047     0.64619E-01
 0.48584E-01 0.55377E-01 0.71071E-01 0.82630E-01 0.88215E-01 0.90705E-01 0.90705E-01 0.88215E-01 0.82630E-01 0.71071E-01
 0.55376E-01 0.48584E-01 0.64619E-01 0.13047     0.29838     0.53312     0.69481     0.76856     0.79679     0.80535    
 0.80535     0.79679     0.59639     0.43307     0.24308     0.11681     0.63243E-01 0.48584E-01 0.54027E-01 0.68383E-01
 0.80208E-01 0.86955E-01 0.90892E-01 0.92365E-01 0.90892E-01 0.86955E-01 0.80208E-01 0.68383E-01 0.54027E-01 0.48584E-01
 0.63243E-01 0.11681     0.24308     0.43307     0.59639     0.68963     0.73195     0.74380     0.73195     0.68963    
 0.29510     0.17330     0.95903E-01 0.60035E-01 0.49812E-01 0.55377E-01 0.68383E-01 0.79622E-01 0.86975E-01 0.92206E-01
 0.95346E-01 0.95346E-01 0.92206E-01 0.86975E-01 0.79622E-01 0.68383E-01 0.55377E-01 0.49812E-01 0.60035E-01 0.95903E-01
 0.17330     0.29510     0.42452     0.51788     0.56289     0.56289     0.51788     0.42452     0.11468     0.76553E-01
 0.57456E-01 0.53304E-01 0.59996E-01 0.71071E-01 0.80208E-01 0.86975E-01 0.92855E-01 0.97434E-01 0.99208E-01 0.97434E-01
 0.92855E-01 0.86975E-01 0.80208E-01 0.71071E-01 0.59996E-01 0.53304E-01 0.57456E-01 0.76552E-01 0.11468     0.17172    
 0.23544     0.28469     0.30294     0.28469     0.23544     0.17172     0.65518E-01 0.59052E-01 0.61367E-01 0.69656E-01
 0.77677E-01 0.82630E-01 0.86955E-01 0.92206E-01 0.97434E-01 0.10071     0.10071     0.97434E-01 0.92206E-01 0.86955E-01
 0.82630E-01 0.77677E-01 0.69656E-01 0.61367E-01 0.59052E-01 0.65518E-01 0.80440E-01 0.10109     0.12163     0.13456    
 0.13456     0.12163     0.10109     0.80440E-01 0.69902E-01 0.78106E-01 0.87346E-01 0.90504E-01 0.88785E-01 0.88215E-01
 0.90892E-01 0.95346E-01 0.99208E-01 0.10071     0.99208E-01 0.95346E-01 0.90892E-01 0.88215E-01 0.88785E-01 0.90504E-01
 0.87346E-01 0.78106E-01 0.69902E-01 0.67494E-01 0.70372E-01 0.75820E-01 0.80718E-01 0.82653E-01 0.80718E-01 0.75820E-01
 0.70372E-01 0.67494E-01 0.10970     0.11673     0.11239     0.10145     0.93173E-01 0.90705E-01 0.92365E-01 0.95346E-01
 0.97434E-01 0.97434E-01 0.95346E-01 0.92365E-01 0.90705E-01 0.93173E-01 0.10145     0.11239     0.11673     0.10970    
 0.98243E-01 0.89700E-01 0.85477E-01 0.84000E-01 0.83655E-01 0.83655E-01 0.84000E-01 0.85477E-01 0.89700E-01 0.98243E-01
 0.16011     0.14537     0.12342     0.10486     0.94361E-01 0.90705E-01 0.90892E-01 0.92206E-01 0.92855E-01 0.92206E-01
 0.90892E-01 0.90705E-01 0.94360E-01 0.10486     0.12342     0.14537     0.16011     0.16150     0.15378     0.14417    
 0.13637     0.13144     0.12975     0.13144     0.13637     0.14417     0.15378     0.16150     0.18867     0.15586    
 0.12587     0.10486     0.93173E-01 0.88215E-01 0.86955E-01 0.86975E-01 0.86975E-01 0.86955E-01 0.88215E-01 0.93173E-01
 0.10486     0.12587     0.15586     0.18867     0.21490     0.22898     0.23210     0.22856     0.22279     0.21877    
 0.21877     0.22279     0.22856     0.23210     0.22898     0.21490     0.19610     0.15586     0.12342     0.10145    
 0.88785E-01 0.82630E-01 0.80208E-01 0.79622E-01 0.80208E-01 0.82630E-01 0.88785E-01 0.10145     0.12342     0.15586    
 0.19610     0.23743     0.27172     0.29362     0.30273     0.30260     0.29908     0.29728     0.29908     0.30260    
 0.30273     0.29362     0.27172     0.23743     0.18867     0.14537     0.11239     0.90504E-01 0.77677E-01 0.71071E-01
 0.68383E-01 0.68383E-01 0.71071E-01 0.77677E-01 0.90504E-01 0.11239     0.14537     0.18867     0.23743     0.28356    
 0.31853     0.33734     0.34142     0.33759     0.33345     0.33345     0.33759     0.34142     0.33734     0.31853    
 0.28356     0.23743     0.16011     0.11672     0.87346E-01 0.69656E-01 0.59995E-01 0.55376E-01 0.54027E-01 0.55377E-01
 0.59996E-01 0.69656E-01 0.87346E-01 0.11673     0.16011     0.21490     0.27172     0.31853     0.34701     0.35620    
 0.35258     0.34567     0.34256     0.34567     0.35258     0.35620     0.34701     0.31853     0.27172     0.21490    
 0.10970     0.78106E-01 0.61367E-01 0.53304E-01 0.49812E-01 0.48584E-01 0.48584E-01 0.49812E-01 0.53304E-01 0.61367E-01
 0.78106E-01 0.10970     0.16150     0.22898     0.29362     0.33734     0.35620     0.35720     0.35049     0.34478    
 0.34478     0.35049     0.35720     0.35619     0.33733     0.29362     0.22898     0.16150     0.69902E-01 0.59052E-01
 0.57456E-01 0.60035E-01 0.63243E-01 0.64619E-01 0.63243E-01 0.60035E-01 0.57456E-01 0.59052E-01 0.69902E-01 0.98243E-01
 0.15378     0.23210     0.30273     0.34142     0.35258     0.35049     0.34537     0.34299     0.34537     0.35049    
 0.35258     0.34142     0.30273     0.23210     0.15378     0.98243E-01 0.65518E-01 0.76552E-01 0.95902E-01 0.11681    
 0.13047     0.13047     0.11681     0.95903E-01 0.76552E-01 0.65518E-01 0.67494E-01 0.89700E-01 0.14417     0.22856    
 0.30260     0.33759     0.34567     0.34478     0.34299     0.34299     0.34478     0.34566     0.33759     0.30260    
 0.22856     0.14417     0.89700E-01 0.67494E-01 0.11468     0.17329     0.24308     0.29838     0.31897     0.29838    
 0.24308     0.17330     0.11468     0.80440E-01 0.70372E-01 0.85477E-01 0.13637     0.22279     0.29908     0.33345    
 0.34256     0.34478     0.34537     0.34478     0.34256     0.33345     0.29908     0.22279     0.13637     0.85477E-01
 0.70372E-01 0.80440E-01 0.29510     0.43307     0.53312     0.58071     0.58071     0.53312     0.43307     0.29510    
 0.17172     0.10109     0.75820E-01 0.84000E-01 0.13144     0.21877     0.29728     0.33345     0.34567     0.35049    
 0.35049     0.34566     0.33345     0.29728     0.21877     0.13144     0.84000E-01 0.75820E-01 0.10109     0.17172    
 0.59639     0.69481     0.73877     0.75095     0.73877     0.69481     0.59639     0.42452     0.23544     0.12163    
 0.80718E-01 0.83655E-01 0.12975     0.21877     0.29908     0.33759     0.35258     0.35720     0.35258     0.33759    
 0.29908     0.21877     0.12975     0.83655E-01 0.80718E-01 0.12163     0.23544     0.42452     0.76856     0.79857    
 0.80770     0.80770     0.79857     0.76856     0.68963     0.51788     0.28469     0.13456     0.82653E-01 0.83655E-01
 0.13144     0.22279     0.30260     0.34142     0.35620     0.35619     0.34142     0.30260     0.22279     0.13144    
 0.83655E-01 0.82653E-01 0.13456     0.28469     0.51788     0.68963     0.81276     0.80989     0.80636     0.80989    
 0.81276     0.79679     0.73195     0.56289     0.30294     0.13456     0.80718E-01 0.84000E-01 0.13637     0.22856    
 0.30273     0.33734     0.34701     0.33733     0.30273     0.22856     0.13637     0.84000E-01 0.80718E-01 0.13456    
 0.30294     0.56289     0.73195     0.79679     0.78430     0.75754     0.75754     0.78430     0.80911     0.80535    
 0.74380     0.56289     0.28469     0.12163     0.75820E-01 0.85477E-01 0.14417     0.23210     0.29362     0.31853    
 0.31853     0.29362     0.23210     0.14417     0.85477E-01 0.75820E-01 0.12163     0.28469     0.56289     0.74380    
 0.80535     0.80911     0.68361     0.64526     0.68361     0.75709     0.80534     0.80535     0.73195     0.51788    
 0.23544     0.10109     0.70372E-01 0.89700E-01 0.15378     0.22898     0.27172     0.28356     0.27172     0.22898    
 0.15378     0.89700E-01 0.70372E-01 0.10109     0.23544     0.51788     0.73195     0.80535     0.80534     0.75709    
 0.53619     0.53619     0.64504     0.75709     0.80911     0.79679     0.68963     0.42452     0.17172     0.80440E-01
 0.67494E-01 0.98243E-01 0.16150     0.21490     0.23743     0.23743     0.21490     0.16150     0.98243E-01 0.67494E-01
 0.80440E-01 0.17172     0.42452     0.68963     0.79679     0.80911     0.75709     0.64504     0.63806     0.67808    
 0.75480     0.80560     0.80791     0.73906     0.53229     0.24402     0.99797E-01 0.63355E-01 0.72137E-01 0.10954    
 0.14790     0.16620     0.17055     0.16620     0.14790     0.10954     0.72137E-01 0.63355E-01 0.99797E-01 0.24402    
 0.53229     0.73906     0.80791     0.80560     0.75480     0.67808     0.67808     0.73506     0.79302     0.81434    
 0.78186     0.64847     0.36919     0.14381     0.67183E-01 0.54444E-01 0.69883E-01 0.94412E-01 0.10879     0.11322    
 0.11322     0.10879     0.94411E-01 0.69883E-01 0.54444E-01 0.67183E-01 0.14380     0.36919     0.64847     0.78186    
 0.81434     0.79302     0.73506     0.67808     0.75480     0.79302     0.81444     0.79663     0.70402     0.47069    
 0.19954     0.78964E-01 0.48392E-01 0.50654E-01 0.65880E-01 0.78049E-01 0.82943E-01 0.84080E-01 0.82943E-01 0.78049E-01
 0.65880E-01 0.50654E-01 0.48392E-01 0.78964E-01 0.19954     0.47069     0.70402     0.79663     0.81444     0.79302    
 0.75480     0.73474     0.80560     0.81434     0.79663     0.71983     0.52236     0.24607     0.92812E-01 0.47519E-01
 0.41884E-01 0.52025E-01 0.64047E-01 0.70855E-01 0.73620E-01 0.73620E-01 0.70855E-01 0.64047E-01 0.52025E-01 0.41884E-01
 0.47519E-01 0.92812E-01 0.24607     0.52236     0.71983     0.79663     0.81434     0.80560     0.79222     0.79222    
 0.80791     0.78186     0.70402     0.52236     0.26394     0.10210     0.48330E-01 0.38172E-01 0.45808E-01 0.58984E-01
 0.69007E-01 0.74705E-01 0.76640E-01 0.74705E-01 0.69007E-01 0.58984E-01 0.45808E-01 0.38172E-01 0.48330E-01 0.10210    
 0.26394     0.52236     0.70402     0.78186     0.80791     0.81269     0.81231     0.81269     0.73906     0.64847    
 0.47069     0.24607     0.10210     0.48830E-01 0.36868E-01 0.43348E-01 0.58058E-01 0.72020E-01 0.82002E-01 0.87484E-01
 0.87484E-01 0.82002E-01 0.72020E-01 0.58058E-01 0.43348E-01 0.36868E-01 0.48830E-01 0.10210     0.24607     0.47069    
 0.64847     0.73906     0.77758     0.79104     0.79104     0.77758     0.53229     0.36919     0.19954     0.92812E-01
 0.48330E-01 0.36868E-01 0.42724E-01 0.58343E-01 0.75829E-01 0.90783E-01 0.10141     0.10540     0.10141     0.90783E-01
 0.75829E-01 0.58343E-01 0.42724E-01 0.36868E-01 0.48330E-01 0.92812E-01 0.19954     0.36919     0.53229     0.63668    
 0.68786     0.70276     0.68786     0.63668     0.24402     0.14381     0.78964E-01 0.47519E-01 0.38172E-01 0.43348E-01
 0.58343E-01 0.77475E-01 0.96610E-01 0.11301     0.12288     0.12288     0.11301     0.96610E-01 0.77475E-01 0.58343E-01
 0.43348E-01 0.38172E-01 0.47519E-01 0.78964E-01 0.14381     0.24402     0.35555     0.44297     0.48804     0.48804    
 0.44297     0.35555     0.99797E-01 0.67183E-01 0.48392E-01 0.41884E-01 0.45808E-01 0.58058E-01 0.75829E-01 0.96610E-01
 0.11752     0.13373     0.13992     0.13373     0.11752     0.96610E-01 0.75829E-01 0.58058E-01 0.45808E-01 0.41884E-01
 0.48392E-01 0.67183E-01 0.99797E-01 0.14479     0.19380     0.23213     0.24656     0.23213     0.19380     0.14479    
 0.63355E-01 0.54444E-01 0.50654E-01 0.52025E-01 0.58984E-01 0.72020E-01 0.90783E-01 0.11301     0.13373     0.14642    
 0.14642     0.13373     0.11301     0.90783E-01 0.72020E-01 0.58984E-01 0.52025E-01 0.50654E-01 0.54444E-01 0.63355E-01
 0.77053E-01 0.93798E-01 0.10970     0.11955     0.11955     0.10970     0.93798E-01 0.77053E-01 0.72137E-01 0.69883E-01
 0.65880E-01 0.64047E-01 0.69007E-01 0.82002E-01 0.10141     0.12288     0.13992     0.14642     0.13992     0.12288    
 0.10141     0.82002E-01 0.69007E-01 0.64047E-01 0.65880E-01 0.69883E-01 0.72137E-01 0.73935E-01 0.77407E-01 0.82231E-01
 0.86458E-01 0.88124E-01 0.86458E-01 0.82231E-01 0.77407E-01 0.73935E-01 0.10954     0.94412E-01 0.78049E-01 0.70855E-01
 0.74705E-01 0.87484E-01 0.10540     0.12288     0.13373     0.13373     0.12288     0.10540     0.87484E-01 0.74705E-01
 0.70855E-01 0.78049E-01 0.94412E-01 0.10954     0.11419     0.11207     0.10965     0.10877     0.10867     0.10867    
 0.10877     0.10965     0.11207     0.11419     0.14790     0.10879     0.82943E-01 0.73620E-01 0.76640E-01 0.87484E-01
 0.10141     0.11301     0.11752     0.11301     0.10141     0.87484E-01 0.76640E-01 0.73620E-01 0.82943E-01 0.10879    
 0.14790     0.18248     0.19877     0.20143     0.19952     0.19741     0.19654     0.19741     0.19952     0.20143    
 0.19877     0.18248     0.16620     0.11322     0.84080E-01 0.73620E-01 0.74705E-01 0.82002E-01 0.90783E-01 0.96610E-01
 0.96610E-01 0.90783E-01 0.82002E-01 0.74705E-01 0.73620E-01 0.84080E-01 0.11322     0.16620     0.23313     0.29062    
 0.32719     0.34673     0.35563     0.35850     0.35850     0.35563     0.34673     0.32719     0.29062     0.23313    
 0.17055     0.11322     0.82943E-01 0.70855E-01 0.69007E-01 0.72020E-01 0.75829E-01 0.77475E-01 0.75829E-01 0.72020E-01
 0.69007E-01 0.70855E-01 0.82943E-01 0.11322     0.17055     0.25325     0.34062     0.41179     0.46130     0.49134    
 0.50585     0.50983     0.50585     0.49134     0.46130     0.41179     0.34062     0.25325     0.16620     0.10879    
 0.78049E-01 0.64047E-01 0.58984E-01 0.58058E-01 0.58343E-01 0.58343E-01 0.58058E-01 0.58984E-01 0.64047E-01 0.78049E-01
 0.10879     0.16620     0.25325     0.35474     0.44722     0.51732     0.56241     0.58561     0.59405     0.59405    
 0.58561     0.56241     0.51732     0.44722     0.35474     0.25325     0.14790     0.94411E-01 0.65880E-01 0.52025E-01
 0.45808E-01 0.43348E-01 0.42724E-01 0.43348E-01 0.45808E-01 0.52025E-01 0.65880E-01 0.94412E-01 0.14790     0.23313    
 0.34062     0.44722     0.53413     0.59291     0.62386     0.63531     0.63766     0.63531     0.62386     0.59291    
 0.53413     0.44722     0.34062     0.23313     0.10954     0.69883E-01 0.50654E-01 0.41884E-01 0.38172E-01 0.36868E-01
 0.36868E-01 0.38172E-01 0.41884E-01 0.50654E-01 0.69883E-01 0.10954     0.18248     0.29062     0.41179     0.51732    
 0.59291     0.63651     0.65466     0.65935     0.65935     0.65466     0.63650     0.59291     0.51732     0.41179    
 0.29062     0.18248     0.72137E-01 0.54444E-01 0.48392E-01 0.47519E-01 0.48330E-01 0.48830E-01 0.48330E-01 0.47519E-01
 0.48392E-01 0.54444E-01 0.72137E-01 0.11419     0.19877     0.32719     0.46130     0.56241     0.62386     0.65466    
 0.66621     0.66862     0.66621     0.65466     0.62385     0.56241     0.46130     0.32718     0.19877     0.11419    
 0.63355E-01 0.67183E-01 0.78964E-01 0.92812E-01 0.10210     0.10210     0.92812E-01 0.78964E-01 0.67183E-01 0.63355E-01
 0.73935E-01 0.11207     0.20143     0.34673     0.49134     0.58561     0.63531     0.65935     0.66862     0.66862    
 0.65935     0.63530     0.58561     0.49134     0.34673     0.20143     0.11207     0.73935E-01 0.99797E-01 0.14380    
 0.19954     0.24607     0.26394     0.24607     0.19954     0.14381     0.99797E-01 0.77053E-01 0.77407E-01 0.10965    
 0.19952     0.35563     0.50585     0.59405     0.63766     0.65935     0.66621     0.65935     0.63765     0.59405    
 0.50585     0.35563     0.19952     0.10965     0.77407E-01 0.77053E-01 0.24402     0.36919     0.47069     0.52236    
 0.52236     0.47069     0.36919     0.24402     0.14479     0.93798E-01 0.82231E-01 0.10877     0.19741     0.35850    
 0.50983     0.59405     0.63531     0.65466     0.65466     0.63530     0.59405     0.50983     0.35850     0.19741    
 0.10877     0.82231E-01 0.93798E-01 0.14479     0.53229     0.64847     0.70402     0.71983     0.70402     0.64847    
 0.53229     0.35555     0.19380     0.10970     0.86458E-01 0.10867     0.19654     0.35850     0.50585     0.58561    
 0.62386     0.63650     0.62385     0.58561     0.50585     0.35850     0.19654     0.10867     0.86458E-01 0.10970    
 0.19380     0.35555     0.73906     0.78186     0.79663     0.79663     0.78186     0.73906     0.63668     0.44297    
 0.23213     0.11955     0.88124E-01 0.10867     0.19741     0.35563     0.49134     0.56241     0.59291     0.59291    
 0.56241     0.49134     0.35563     0.19741     0.10867     0.88124E-01 0.11955     0.23213     0.44297     0.63668    
 0.80791     0.81434     0.81444     0.81434     0.80791     0.77758     0.68786     0.48804     0.24656     0.11955    
 0.86458E-01 0.10877     0.19952     0.34673     0.46130     0.51732     0.53413     0.51732     0.46130     0.34673    
 0.19952     0.10877     0.86458E-01 0.11955     0.24656     0.48804     0.68786     0.77758     0.80560     0.79302    
 0.79302     0.80560     0.81269     0.79104     0.70276     0.48804     0.23213     0.10970     0.82231E-01 0.10965    
 0.20143     0.32719     0.41179     0.44722     0.44722     0.41179     0.32718     0.20143     0.10965     0.82231E-01
 0.10970     0.23213     0.48804     0.70276     0.79104     0.81269     0.75480     0.73506     0.75480     0.79222    
 0.81231     0.79104     0.68786     0.44297     0.19380     0.93798E-01 0.77407E-01 0.11207     0.19877     0.29062    
 0.34062     0.35474     0.34062     0.29062     0.19877     0.11207     0.77407E-01 0.93798E-01 0.19380     0.44297    
 0.68786     0.79104     0.81231     0.79222     0.67808     0.67808     0.73474     0.79222     0.81269     0.77758    
 0.63668     0.35555     0.14479     0.77053E-01 0.73935E-01 0.11419     0.18248     0.23313     0.25325     0.25325    
 0.23313     0.18248     0.11419     0.73935E-01 0.77053E-01 0.14479     0.35555     0.63668     0.77758     0.81269    
 0.79222     0.73474     0.76731     0.78061     0.80519     0.81431     0.78413     0.67048     0.41956     0.17828    
 0.81798E-01 0.61002E-01 0.74744E-01 0.10562     0.12828     0.13659     0.13834     0.13659     0.12828     0.10562    
 0.74744E-01 0.61002E-01 0.81798E-01 0.17828     0.41956     0.67048     0.78413     0.81431     0.80519     0.78061    
 0.78061     0.79929     0.81488     0.80421     0.73711     0.55161     0.27131     0.10597     0.55786E-01 0.50031E-01
 0.63144E-01 0.78023E-01 0.85195E-01 0.87425E-01 0.87425E-01 0.85194E-01 0.78023E-01 0.63144E-01 0.50031E-01 0.55786E-01
 0.10597     0.27131     0.55161     0.73711     0.80421     0.81488     0.79929     0.78061     0.80519     0.81488    
 0.80892     0.76232     0.62460     0.35949     0.13932     0.58560E-01 0.40283E-01 0.44903E-01 0.57172E-01 0.66368E-01
 0.70878E-01 0.72250E-01 0.70878E-01 0.66368E-01 0.57172E-01 0.44903E-01 0.40283E-01 0.58560E-01 0.13932     0.35949    
 0.62460     0.76232     0.80892     0.81488     0.80519     0.79891     0.81431     0.80421     0.76232     0.64667    
 0.40985     0.16869     0.63964E-01 0.36885E-01 0.37456E-01 0.50048E-01 0.63905E-01 0.73411E-01 0.78240E-01 0.78240E-01