LaBr                                    
   4.19203692314954     
     0.707107    0.000000    0.000000
     0.000000    0.707107    0.000000
     0.000000    0.000000    1.000000
   Na
     2
Direct
  0.000000  0.000000  0.000000
  0.500000  0.500000  0.500000
 
   24   24   32
 0.22867     0.70663E-01 0.16349E-01 0.11695E-01 0.18631E-01 0.42221E-01 0.99200E-01 0.20036     0.32442     0.43223    
 0.50476     0.54391     0.55607     0.54391     0.50476     0.43223     0.32442     0.20036     0.99200E-01 0.42221E-01
 0.18631E-01 0.11695E-01 0.16349E-01 0.70663E-01 0.70663E-01 0.35614E-01 0.14414E-01 0.12595E-01 0.20978E-01 0.47057E-01
 0.10766     0.21152     0.33526     0.44088     0.51138     0.54939     0.56120     0.54939     0.51138     0.44088    
 0.33526     0.21152     0.10766     0.47057E-01 0.20978E-01 0.12595E-01 0.14414E-01 0.35614E-01 0.16349E-01 0.14414E-01
 0.12780E-01 0.16136E-01 0.29303E-01 0.63468E-01 0.13469     0.24511     0.36653     0.46529     0.52996     0.56473    
 0.57555     0.56472     0.52996     0.46529     0.36653     0.24511     0.13469     0.63468E-01 0.29303E-01 0.16136E-01
 0.12780E-01 0.14414E-01 0.11695E-01 0.12595E-01 0.16136E-01 0.25521E-01 0.48169E-01 0.97097E-01 0.18393     0.29997    
 0.41401     0.50116     0.55702     0.58707     0.59648     0.58707     0.55702     0.50116     0.41401     0.29997    
 0.18393     0.97097E-01 0.48169E-01 0.25521E-01 0.16136E-01 0.12595E-01 0.18631E-01 0.20978E-01 0.29303E-01 0.48169E-01
 0.86597E-01 0.15562     0.25672     0.37071     0.47046     0.54254     0.58816     0.61289     0.62071     0.61289    
 0.58816     0.54254     0.47046     0.37071     0.25672     0.15562     0.86597E-01 0.48169E-01 0.29303E-01 0.20978E-01
 0.42221E-01 0.47057E-01 0.63468E-01 0.97097E-01 0.15562     0.24219     0.34644     0.44707     0.52744     0.58363    
 0.61929     0.63893     0.64521     0.63893     0.61929     0.58363     0.52744     0.44707     0.34644     0.24219    
 0.15562     0.97097E-01 0.63468E-01 0.47057E-01 0.99199E-01 0.10766     0.13469     0.18393     0.25672     0.34644    
 0.43835     0.51787     0.57830     0.62035     0.64749     0.66273     0.66766     0.66273     0.64749     0.62035    
 0.57830     0.51787     0.43835     0.34644     0.25672     0.18393     0.13469     0.10766     0.20036     0.21152    
 0.24511     0.29997     0.37071     0.44707     0.51787     0.57601     0.61979     0.65074     0.67118     0.68283    
 0.68663     0.68283     0.67118     0.65074     0.61979     0.57601     0.51787     0.44707     0.37071     0.29997    
 0.24511     0.21152     0.32442     0.33526     0.36653     0.41401     0.47046     0.52744     0.57830     0.61979    
 0.65150     0.67445     0.68986     0.69873     0.70162     0.69873     0.68986     0.67445     0.65150     0.61979    
 0.57830     0.52744     0.47046     0.41401     0.36653     0.33526     0.43223     0.44088     0.46529     0.50116    
 0.54254     0.58363     0.62035     0.65074     0.67445     0.69189     0.70373     0.71056     0.71279     0.71056    
 0.70373     0.69189     0.67445     0.65074     0.62035     0.58363     0.54254     0.50116     0.46529     0.44088    
 0.50476     0.51139     0.52996     0.55702     0.58816     0.61929     0.64749     0.67118     0.68986     0.70373    
 0.71320     0.71871     0.72052     0.71871     0.71320     0.70373     0.68986     0.67118     0.64749     0.61929    
 0.58816     0.55702     0.52996     0.51139     0.54391     0.54939     0.56473     0.58707     0.61289     0.63893    
 0.66273     0.68283     0.69873     0.71056     0.71871     0.72351     0.72510     0.72351     0.71871     0.71056    
 0.69873     0.68283     0.66273     0.63893     0.61289     0.58707     0.56472     0.54939     0.55607     0.56120    
 0.57555     0.59648     0.62071     0.64521     0.66766     0.68663     0.70162     0.71279     0.72052     0.72510    
 0.72663     0.72510     0.72052     0.71279     0.70162     0.68663     0.66766     0.64521     0.62071     0.59648    
 0.57555     0.56120     0.54391     0.54939     0.56473     0.58707     0.61289     0.63893     0.66273     0.68283    
 0.69873     0.71056     0.71871     0.72351     0.72510     0.72351     0.71871     0.71056     0.69873     0.68283    
 0.66273     0.63893     0.61289     0.58707     0.56473     0.54939     0.50476     0.51139     0.52996     0.55702    
 0.58816     0.61929     0.64749     0.67118     0.68986     0.70373     0.71320     0.71871     0.72052     0.71871    
 0.71320     0.70373     0.68986     0.67118     0.64749     0.61929     0.58816     0.55702     0.52996     0.51139    
 0.43223     0.44088     0.46529     0.50116     0.54254     0.58363     0.62035     0.65074     0.67445     0.69189    
 0.70373     0.71056     0.71279     0.71056     0.70373     0.69189     0.67445     0.65074     0.62035     0.58363    
 0.54254     0.50116     0.46529     0.44088     0.32442     0.33526     0.36653     0.41401     0.47046     0.52744    
 0.57830     0.61979     0.65150     0.67445     0.68986     0.69873     0.70162     0.69873     0.68986     0.67445    
 0.65150     0.61979     0.57830     0.52744     0.47046     0.41401     0.36653     0.33526     0.20036     0.21152    
 0.24511     0.29997     0.37071     0.44707     0.51787     0.57601     0.61979     0.65074     0.67118     0.68283    
 0.68663     0.68283     0.67118     0.65074     0.61979     0.57601     0.51787     0.44707     0.37071     0.29997    
 0.24511     0.21152     0.99199E-01 0.10766     0.13469     0.18393     0.25672     0.34644     0.43835     0.51787    
 0.57830     0.62035     0.64749     0.66273     0.66766     0.66273     0.64749     0.62035     0.57830     0.51787    
 0.43835     0.34644     0.25672     0.18393     0.13469     0.10766     0.42221E-01 0.47057E-01 0.63468E-01 0.97097E-01
 0.15562     0.24219     0.34644     0.44707     0.52744     0.58363     0.61929     0.63893     0.64521     0.63893    
 0.61929     0.58363     0.52744     0.44707     0.34644     0.24219     0.15562     0.97097E-01 0.63468E-01 0.47057E-01
 0.18631E-01 0.20978E-01 0.29303E-01 0.48169E-01 0.86597E-01 0.15562     0.25672     0.37071     0.47046     0.54254    
 0.58816     0.61289     0.62071     0.61289     0.58816     0.54254     0.47046     0.37071     0.25672     0.15562    
 0.86597E-01 0.48169E-01 0.29303E-01 0.20978E-01 0.11695E-01 0.12595E-01 0.16136E-01 0.25521E-01 0.48169E-01 0.97097E-01
 0.18393     0.29997     0.41401     0.50116     0.55702     0.58707     0.59648     0.58707     0.55702     0.50116    
 0.41401     0.29997     0.18393     0.97097E-01 0.48169E-01 0.25521E-01 0.16136E-01 0.12595E-01 0.16349E-01 0.14414E-01
 0.12780E-01 0.16136E-01 0.29303E-01 0.63468E-01 0.13469     0.24511     0.36653     0.46529     0.52996     0.56473    
 0.57555     0.56473     0.52996     0.46529     0.36653     0.24511     0.13469     0.63468E-01 0.29303E-01 0.16136E-01
 0.12780E-01 0.14414E-01 0.70663E-01 0.35614E-01 0.14414E-01 0.12595E-01 0.20978E-01 0.47057E-01 0.10766     0.21152    
 0.33526     0.44088     0.51138     0.54939     0.56120     0.54939     0.51138     0.44088     0.33526     0.21152    
 0.10766     0.47057E-01 0.20978E-01 0.12595E-01 0.14414E-01 0.35614E-01 0.64010E-01 0.31465E-01 0.13169E-01 0.11985E-01
 0.20453E-01 0.46477E-01 0.10699     0.21080     0.33453     0.44019     0.51075     0.54878     0.56060     0.54878    
 0.51075     0.44019     0.33453     0.21080     0.10699     0.46477E-01 0.20453E-01 0.11985E-01 0.13169E-01 0.31465E-01
 0.31465E-01 0.20858E-01 0.12405E-01 0.13041E-01 0.22978E-01 0.51573E-01 0.11565     0.22188     0.34505     0.44847    
 0.51706     0.55399     0.56548     0.55399     0.51706     0.44847     0.34505     0.22188     0.11565     0.51573E-01
 0.22978E-01 0.13041E-01 0.12405E-01 0.20858E-01 0.13168E-01 0.12405E-01 0.12464E-01 0.17099E-01 0.31920E-01 0.68775E-01
 0.14317     0.25508     0.37531     0.47183     0.53475     0.56859     0.57914     0.56859     0.53475     0.47183    
 0.37531     0.25508     0.14317     0.68775E-01 0.31920E-01 0.17099E-01 0.12464E-01 0.12405E-01 0.11985E-01 0.13041E-01
 0.17099E-01 0.27524E-01 0.52037E-01 0.10365     0.19280     0.30896     0.42115     0.50617     0.56059     0.58991    
 0.59910     0.58991     0.56059     0.50617     0.42115     0.30896     0.19280     0.10365     0.52037E-01 0.27524E-01
 0.17099E-01 0.13041E-01 0.20453E-01 0.22978E-01 0.31920E-01 0.52037E-01 0.92409E-01 0.16346     0.26527     0.37799    
 0.47557     0.54586     0.59040     0.61463     0.62230     0.61463     0.59040     0.54586     0.47557     0.37799    
 0.26527     0.16346     0.92409E-01 0.52037E-01 0.31920E-01 0.22978E-01 0.46477E-01 0.51573E-01 0.68775E-01 0.10365    
 0.16346     0.25045     0.35362     0.45217     0.53056     0.58542     0.62035     0.63966     0.64585     0.63966    
 0.62035     0.58542     0.53056     0.45217     0.35362     0.25045     0.16346     0.10365     0.68775E-01 0.51573E-01
 0.10699     0.11565     0.14317     0.19280     0.26527     0.35362     0.44342     0.52088     0.57981     0.62095    
 0.64763     0.66266     0.66754     0.66266     0.64763     0.62095     0.57981     0.52088     0.44342     0.35362    
 0.26527     0.19280     0.14317     0.11565     0.21080     0.22188     0.25508     0.30896     0.37799     0.45217    
 0.52088     0.57742     0.62016     0.65052     0.67066     0.68218     0.68595     0.68218     0.67066     0.65052    
 0.62016     0.57742     0.52088     0.45217     0.37799     0.30896     0.25508     0.22188     0.33453     0.34505    
 0.37531     0.42115     0.47557     0.53056     0.57981     0.62016     0.65117     0.67370     0.68890     0.69767    
 0.70054     0.69767     0.68891     0.67370     0.65117     0.62016     0.57981     0.53056     0.47557     0.42115    
 0.37531     0.34505     0.44019     0.44847     0.47183     0.50617     0.54586     0.58542     0.62095     0.65052    
 0.67370     0.69083     0.70249     0.70923     0.71143     0.70923     0.70249     0.69083     0.67370     0.65052    
 0.62095     0.58542     0.54586     0.50617     0.47183     0.44847     0.51075     0.51706     0.53475     0.56059    
 0.59040     0.62035     0.64763     0.67066     0.68890     0.70249     0.71179     0.71720     0.71898     0.71720    
 0.71179     0.70249     0.68890     0.67066     0.64763     0.62035     0.59040     0.56059     0.53475     0.51706    
 0.54878     0.55399     0.56859     0.58991     0.61463     0.63966     0.66266     0.68218     0.69767     0.70923    
 0.71720     0.72190     0.72345     0.72190     0.71720     0.70923     0.69767     0.68218     0.66266     0.63966    
 0.61463     0.58991     0.56859     0.55399     0.56060     0.56548     0.57914     0.59910     0.62230     0.64585    
 0.66754     0.68595     0.70054     0.71143     0.71898     0.72345     0.72495     0.72345     0.71898     0.71143    
 0.70054     0.68595     0.66754     0.64585     0.62230     0.59910     0.57914     0.56548     0.54878     0.55399    
 0.56859     0.58991     0.61463     0.63966     0.66266     0.68218     0.69767     0.70923     0.71720     0.72190    
 0.72345     0.72190     0.71720     0.70923     0.69767     0.68218     0.66266     0.63966     0.61463     0.58991    
 0.56859     0.55399     0.51075     0.51706     0.53475     0.56059     0.59040     0.62035     0.64763     0.67066    
 0.68890     0.70249     0.71179     0.71720     0.71898     0.71720     0.71179     0.70249     0.68890     0.67066    
 0.64763     0.62035     0.59040     0.56059     0.53475     0.51706     0.44019     0.44847     0.47183     0.50617    
 0.54586     0.58542     0.62095     0.65052     0.67370     0.69083     0.70249     0.70923     0.71143     0.70923    
 0.70249     0.69083     0.67370     0.65052     0.62095     0.58542     0.54586     0.50617     0.47183     0.44847    
 0.33453     0.34505     0.37531     0.42115     0.47557     0.53056     0.57981     0.62016     0.65117     0.67370    
 0.68890     0.69767     0.70054     0.69767     0.68890     0.67370     0.65117     0.62016     0.57981     0.53056    
 0.47557     0.42115     0.37531     0.34505     0.21080     0.22188     0.25508     0.30896     0.37799     0.45217    
 0.52088     0.57742     0.62016     0.65052     0.67066     0.68218     0.68595     0.68218     0.67066     0.65052    
 0.62016     0.57742     0.52088     0.45217     0.37799     0.30896     0.25508     0.22188     0.10699     0.11565    
 0.14317     0.19280     0.26527     0.35362     0.44342     0.52088     0.57981     0.62095     0.64763     0.66266    
 0.66754     0.66266     0.64763     0.62095     0.57981     0.52088     0.44342     0.35362     0.26527     0.19280    
 0.14317     0.11565     0.46477E-01 0.51573E-01 0.68775E-01 0.10365     0.16346     0.25045     0.35362     0.45217    
 0.53056     0.58542     0.62035     0.63966     0.64585     0.63966     0.62035     0.58542     0.53056     0.45217    
 0.35362     0.25045     0.16346     0.10365     0.68775E-01 0.51573E-01 0.20453E-01 0.22978E-01 0.31920E-01 0.52037E-01
 0.92409E-01 0.16346     0.26527     0.37799     0.47557     0.54586     0.59040     0.61463     0.62230     0.61463    
 0.59040     0.54586     0.47557     0.37799     0.26527     0.16346     0.92409E-01 0.52037E-01 0.31920E-01 0.22978E-01
 0.11985E-01 0.13041E-01 0.17099E-01 0.27524E-01 0.52037E-01 0.10365     0.19280     0.30896     0.42115     0.50617    
 0.56059     0.58991     0.59910     0.58991     0.56059     0.50617     0.42115     0.30896     0.19280     0.10365    
 0.52037E-01 0.27524E-01 0.17099E-01 0.13041E-01 0.13168E-01 0.12405E-01 0.12464E-01 0.17099E-01 0.31920E-01 0.68775E-01
 0.14317     0.25508     0.37531     0.47183     0.53475     0.56859     0.57914     0.56859     0.53475     0.47183    
 0.37531     0.25508     0.14317     0.68775E-01 0.31920E-01 0.17099E-01 0.12464E-01 0.12405E-01 0.31465E-01 0.20858E-01
 0.12405E-01 0.13041E-01 0.22978E-01 0.51573E-01 0.11565     0.22188     0.34505     0.44847     0.51706     0.55399    
 0.56548     0.55399     0.51706     0.44847     0.34505     0.22188     0.11565     0.51573E-01 0.22978E-01 0.13041E-01
 0.12405E-01 0.20857E-01 0.15511E-01 0.13041E-01 0.11279E-01 0.14666E-01 0.27630E-01 0.61410E-01 0.13218     0.24220    
 0.36350     0.46241     0.52729     0.56220     0.57307     0.56220     0.52729     0.46241     0.36350     0.24220    
 0.13218     0.61410E-01 0.27630E-01 0.14666E-01 0.11279E-01 0.13041E-01 0.13041E-01 0.11926E-01 0.11687E-01 0.16176E-01
 0.30775E-01 0.67304E-01 0.14132     0.25290     0.37300     0.46963     0.53272     0.56666     0.57725     0.56666    
 0.53272     0.46963     0.37300     0.25290     0.14132     0.67304E-01 0.30775E-01 0.16176E-01 0.11687E-01 0.11926E-01
 0.11279E-01 0.11687E-01 0.14091E-01 0.21805E-01 0.41783E-01 0.86852E-01 0.16990     0.28459     0.40023     0.49002    
 0.54798     0.57922     0.58900     0.57922     0.54798     0.49002     0.40023     0.28459     0.16990     0.86852E-01
 0.41783E-01 0.21805E-01 0.14091E-01 0.11687E-01 0.14666E-01 0.16176E-01 0.21805E-01 0.35530E-01 0.65845E-01 0.12520    
 0.21997     0.33512     0.44125     0.52006     0.57040     0.59769     0.60630     0.59769     0.57040     0.52006    
 0.44125     0.33512     0.21997     0.12520     0.65845E-01 0.35530E-01 0.21805E-01 0.16176E-01 0.27630E-01 0.30775E-01
 0.41783E-01 0.65845E-01 0.11188     0.18810     0.29068     0.39878     0.48985     0.55501     0.59654     0.61933    
 0.62660     0.61933     0.59654     0.55501     0.48985     0.39878     0.29068     0.18810     0.11188     0.65845E-01
 0.41783E-01 0.30775E-01 0.61410E-01 0.67304E-01 0.86852E-01 0.12520     0.18810     0.27525     0.37433     0.46650    
 0.53916     0.59024     0.62313     0.64152     0.64746     0.64152     0.62313     0.59024     0.53916     0.46650    
 0.37433     0.27525     0.18810     0.12520     0.86852E-01 0.67304E-01 0.13218     0.14132     0.16990     0.21997    
 0.29068     0.37433     0.45771     0.52917     0.58378     0.62236     0.64772     0.66217     0.66689     0.66217    
 0.64772     0.62236     0.58378     0.52917     0.45771     0.37433     0.29068     0.21997     0.16990     0.14132    
 0.24220     0.25290     0.28459     0.33512     0.39878     0.46650     0.52917     0.58111     0.62088     0.64954    
 0.66880     0.67994     0.68360     0.67994     0.66880     0.64954     0.62088     0.58111     0.52917     0.46650    
 0.39878     0.33512     0.28459     0.25290     0.36350     0.37300     0.40023     0.44125     0.48985     0.53916    
 0.58378     0.62088     0.64983     0.67118     0.68574     0.69421     0.69698     0.69421     0.68574     0.67118    
 0.64983     0.62088     0.58378     0.53916     0.48985     0.44125     0.40023     0.37300     0.46241     0.46963    
 0.49002     0.52006     0.55501     0.59024     0.62236     0.64954     0.67118     0.68736     0.69847     0.70494    
 0.70706     0.70494     0.69847     0.68736     0.67118     0.64954     0.62236     0.59024     0.55501     0.52006    
 0.49002     0.46963     0.52729     0.53272     0.54798     0.57040     0.59654     0.62313     0.64772     0.66880    
 0.68574     0.69847     0.70726     0.71238     0.71407     0.71238     0.70726     0.69847     0.68574     0.66880    
 0.64772     0.62313     0.59654     0.57040     0.54798     0.53272     0.56220     0.56666     0.57922     0.59769    
 0.61933     0.64152     0.66217     0.67994     0.69421     0.70494     0.71238     0.71678     0.71823     0.71678    
 0.71238     0.70494     0.69421     0.67994     0.66217     0.64152     0.61933     0.59769     0.57922     0.56666    
 0.57307     0.57725     0.58900     0.60630     0.62660     0.64746     0.66689     0.68360     0.69698     0.70706    
 0.71407     0.71823     0.71962     0.71823     0.71407     0.70706     0.69698     0.68360     0.66689     0.64746    
 0.62660     0.60630     0.58900     0.57725     0.56220     0.56666     0.57922     0.59769     0.61933     0.64152    
 0.66217     0.67994     0.69421     0.70494     0.71238     0.71678     0.71823     0.71678     0.71238     0.70494    
 0.69421     0.67994     0.66217     0.64152     0.61933     0.59769     0.57922     0.56666     0.52729     0.53272    
 0.54798     0.57040     0.59654     0.62313     0.64772     0.66880     0.68574     0.69847     0.70726     0.71238    
 0.71407     0.71238     0.70726     0.69847     0.68574     0.66880     0.64772     0.62313     0.59654     0.57040    
 0.54798     0.53272     0.46241     0.46963     0.49002     0.52006     0.55501     0.59024     0.62236     0.64954    
 0.67118     0.68736     0.69847     0.70494     0.70706     0.70494     0.69847     0.68736     0.67118     0.64954    
 0.62236     0.59024     0.55501     0.52006     0.49002     0.46963     0.36350     0.37300     0.40023     0.44125    
 0.48985     0.53916     0.58378     0.62088     0.64983     0.67118     0.68574     0.69421     0.69698     0.69421    
 0.68574     0.67118     0.64983     0.62088     0.58378     0.53916     0.48985     0.44125     0.40023     0.37300    
 0.24220     0.25290     0.28459     0.33512     0.39878     0.46650     0.52917     0.58111     0.62088     0.64954    
 0.66880     0.67994     0.68360     0.67994     0.66880     0.64954     0.62088     0.58111     0.52917     0.46650    
 0.39878     0.33512     0.28459     0.25290     0.13218     0.14132     0.16990     0.21997     0.29068     0.37433    
 0.45771     0.52917     0.58378     0.62236     0.64772     0.66217     0.66689     0.66217     0.64772     0.62236    
 0.58378     0.52917     0.45771     0.37433     0.29068     0.21997     0.16990     0.14132     0.61410E-01 0.67304E-01
 0.86852E-01 0.12520     0.18810     0.27525     0.37433     0.46650     0.53916     0.59024     0.62313     0.64152    
 0.64746     0.64152     0.62313     0.59024     0.53916     0.46650     0.37433     0.27525     0.18810     0.12520    
 0.86852E-01 0.67304E-01 0.27630E-01 0.30775E-01 0.41783E-01 0.65845E-01 0.11188     0.18810     0.29068     0.39878    
 0.48985     0.55501     0.59654     0.61933     0.62660     0.61933     0.59654     0.55501     0.48985     0.39878    
 0.29068     0.18810     0.11188     0.65845E-01 0.41783E-01 0.30775E-01 0.14666E-01 0.16176E-01 0.21805E-01 0.35530E-01
 0.65845E-01 0.12520     0.21997     0.33512     0.44125     0.52006     0.57040     0.59769     0.60630     0.59769    
 0.57040     0.52006     0.44125     0.33512     0.21997     0.12520     0.65845E-01 0.35529E-01 0.21805E-01 0.16176E-01
 0.11279E-01 0.11687E-01 0.14091E-01 0.21805E-01 0.41783E-01 0.86852E-01 0.16990     0.28459     0.40023     0.49002    
 0.54798     0.57922     0.58900     0.57922     0.54798     0.49002     0.40023     0.28459     0.16990     0.86852E-01
 0.41783E-01 0.21805E-01 0.14091E-01 0.11687E-01 0.13041E-01 0.11926E-01 0.11687E-01 0.16176E-01 0.30775E-01 0.67304E-01
 0.14132     0.25290     0.37300     0.46963     0.53272     0.56666     0.57725     0.56666     0.53272     0.46963    
 0.37300     0.25290     0.14132     0.67304E-01 0.30775E-01 0.16176E-01 0.11687E-01 0.11926E-01 0.13134E-01 0.13447E-01
 0.15922E-01 0.24328E-01 0.45960E-01 0.93643E-01 0.17895     0.29356     0.40700     0.49436     0.55070     0.58108    
 0.59060     0.58108     0.55070     0.49436     0.40700     0.29356     0.17895     0.93643E-01 0.45960E-01 0.24328E-01
 0.15922E-01 0.13447E-01 0.13447E-01 0.14058E-01 0.17241E-01 0.26788E-01 0.50351E-01 0.10077     0.18843     0.30322    
 0.41482     0.50003     0.55487     0.58450     0.59380     0.58450     0.55487     0.50003     0.41482     0.30322    
 0.18843     0.10077     0.50351E-01 0.26788E-01 0.17241E-01 0.14058E-01 0.15922E-01 0.17241E-01 0.22431E-01 0.35626E-01
 0.65286E-01 0.12373     0.21732     0.33145     0.43715     0.51606     0.56667     0.59416     0.60284     0.59416    
 0.56667     0.51606     0.43715     0.33145     0.21732     0.12373     0.65286E-01 0.35626E-01 0.22431E-01 0.17241E-01
 0.24328E-01 0.26788E-01 0.35626E-01 0.55740E-01 0.96077E-01 0.16637     0.26591     0.37550     0.47065     0.53983    
 0.58418     0.60854     0.61630     0.60854     0.58418     0.53983     0.47065     0.37550     0.26591     0.16637    
 0.96077E-01 0.55740E-01 0.35626E-01 0.26788E-01 0.45960E-01 0.50351E-01 0.65286E-01 0.96077E-01 0.15024     0.23156    
 0.33141     0.42995     0.51042     0.56784     0.60493     0.62563     0.63230     0.62563     0.60493     0.56784    
 0.51042     0.42995     0.33141     0.23156     0.15024     0.96077E-01 0.65286E-01 0.50351E-01 0.93643E-01 0.10077    
 0.12373     0.16637     0.23156     0.31563     0.40593     0.48736     0.55120     0.59662     0.62645     0.64344    
 0.64898     0.64344     0.62645     0.59662     0.55120     0.48736     0.40593     0.31563     0.23156     0.16637    
 0.12373     0.10077     0.17895     0.18843     0.21732     0.26591     0.33141     0.40593     0.47860     0.54072    
 0.58882     0.62351     0.64681     0.66033     0.66478     0.66033     0.64681     0.62351     0.58882     0.54072    
 0.47860     0.40593     0.33141     0.26591     0.21732     0.18843     0.29356     0.30322     0.33145     0.37550    
 0.42995     0.48736     0.54072     0.58568     0.62088     0.64687     0.66469     0.67515     0.67861     0.67515    
 0.66469     0.64687     0.62088     0.58568     0.54072     0.48736     0.42995     0.37550     0.33145     0.30322    
 0.40700     0.41482     0.43715     0.47065     0.51042     0.55120     0.58882     0.62088     0.64656     0.66593    
 0.67939     0.68731     0.68993     0.68731     0.67939     0.66593     0.64656     0.62088     0.58882     0.55120    
 0.51042     0.47065     0.43715     0.41482     0.49436     0.50003     0.51606     0.53983     0.56784     0.59662    
 0.62351     0.64687     0.66593     0.68049     0.69066     0.69663     0.69860     0.69663     0.69066     0.68049    
 0.66593     0.64687     0.62351     0.59662     0.56784     0.53983     0.51606     0.50003     0.55070     0.55487    
 0.56667     0.58418     0.60493     0.62645     0.64681     0.66469     0.67939     0.69066     0.69854     0.70319    
 0.70472     0.70319     0.69854     0.69066     0.67939     0.66469     0.64681     0.62645     0.60493     0.58418    
 0.56667     0.55487     0.58108     0.58450     0.59416     0.60854     0.62563     0.64344     0.66033     0.67515    
 0.68731     0.69663     0.70319     0.70708     0.70838     0.70708     0.70319     0.69663     0.68731     0.67515    
 0.66033     0.64344     0.62563     0.60854     0.59416     0.58450     0.59060     0.59380     0.60284     0.61630    
 0.63230     0.64898     0.66478     0.67861     0.68993     0.69860     0.70472     0.70838     0.70960     0.70838    
 0.70472     0.69860     0.68993     0.67861     0.66478     0.64898     0.63230     0.61630     0.60284     0.59380    
 0.58108     0.58450     0.59416     0.60854     0.62563     0.64344     0.66033     0.67515     0.68731     0.69663    
 0.70319     0.70708     0.70838     0.70708     0.70319     0.69663     0.68731     0.67515     0.66033     0.64344    
 0.62563     0.60854     0.59416     0.58450     0.55070     0.55487     0.56667     0.58418     0.60493     0.62645    
 0.64681     0.66469     0.67939     0.69066     0.69854     0.70319     0.70472     0.70319     0.69854     0.69066    
 0.67939     0.66469     0.64681     0.62645     0.60493     0.58418     0.56667     0.55487     0.49436     0.50003    
 0.51606     0.53983     0.56784     0.59662     0.62351     0.64687     0.66593     0.68049     0.69066     0.69663    
 0.69860     0.69663     0.69066     0.68049     0.66593     0.64687     0.62351     0.59662     0.56784     0.53983    
 0.51606     0.50003     0.40700     0.41482     0.43715     0.47065     0.51042     0.55120     0.58882     0.62088    
 0.64656     0.66593     0.67939     0.68731     0.68993     0.68731     0.67939     0.66593     0.64656     0.62088    
 0.58882     0.55120     0.51042     0.47065     0.43715     0.41482     0.29356     0.30322     0.33145     0.37550    
 0.42995     0.48736     0.54072     0.58568     0.62088     0.64687     0.66469     0.67515     0.67861     0.67515    
 0.66469     0.64687     0.62088     0.58568     0.54072     0.48736     0.42995     0.37550     0.33145     0.30322    
 0.17895     0.18843     0.21732     0.26591     0.33141     0.40593     0.47860     0.54072     0.58882     0.62351    
 0.64681     0.66033     0.66478     0.66033     0.64681     0.62351     0.58882     0.54072     0.47860     0.40593    
 0.33141     0.26591     0.21732     0.18843     0.93643E-01 0.10077     0.12373     0.16637     0.23156     0.31563    
 0.40593     0.48736     0.55120     0.59662     0.62645     0.64344     0.64898     0.64344     0.62645     0.59662    
 0.55120     0.48736     0.40593     0.31563     0.23156     0.16637     0.12373     0.10077     0.45960E-01 0.50351E-01
 0.65286E-01 0.96077E-01 0.15024     0.23156     0.33141     0.42995     0.51042     0.56784     0.60493     0.62563    
 0.63230     0.62563     0.60493     0.56784     0.51042     0.42995     0.33141     0.23156     0.15024     0.96077E-01
 0.65286E-01 0.50351E-01 0.24328E-01 0.26788E-01 0.35626E-01 0.55740E-01 0.96077E-01 0.16637     0.26591     0.37550    
 0.47065     0.53983     0.58418     0.60854     0.61630     0.60854     0.58418     0.53983     0.47065     0.37550    
 0.26591     0.16637     0.96077E-01 0.55740E-01 0.35626E-01 0.26788E-01 0.15922E-01 0.17241E-01 0.22431E-01 0.35626E-01
 0.65286E-01 0.12373     0.21732     0.33145     0.43715     0.51606     0.56667     0.59416     0.60284     0.59416    
 0.56667     0.51606     0.43715     0.33145     0.21732     0.12373     0.65286E-01 0.35626E-01 0.22431E-01 0.17241E-01
 0.13447E-01 0.14058E-01 0.17241E-01 0.26788E-01 0.50351E-01 0.10077     0.18843     0.30322     0.41482     0.50003    
 0.55487     0.58450     0.59380     0.58450     0.55487     0.50003     0.41482     0.30322     0.18843     0.10077    
 0.50351E-01 0.26788E-01 0.17241E-01 0.14058E-01 0.24753E-01 0.26577E-01 0.33619E-01 0.50775E-01 0.86918E-01 0.15263    
 0.24949     0.35985     0.45798     0.53013     0.57643     0.60173     0.60975     0.60173     0.57643     0.53013    
 0.45798     0.35985     0.24949     0.15263     0.86918E-01 0.50775E-01 0.33619E-01 0.26577E-01 0.26577E-01 0.28656E-01
 0.36470E-01 0.55001E-01 0.93131E-01 0.16084     0.25842     0.36761     0.46365     0.53401     0.57920     0.60396    
 0.61183     0.60396     0.57920     0.53401     0.46365     0.36761     0.25842     0.16084     0.93131E-01 0.55001E-01
 0.36470E-01 0.28656E-01 0.33619E-01 0.36470E-01 0.46673E-01 0.69430E-01 0.11336     0.18633     0.28499     0.39004    
 0.47984     0.54504     0.58709     0.61032     0.61775     0.61032     0.58709     0.54504     0.47984     0.39004    
 0.28499     0.18633     0.11336     0.69430E-01 0.46673E-01 0.36470E-01 0.50775E-01 0.55001E-01 0.69430E-01 0.99265E-01
 0.15177     0.23064     0.32783     0.42448     0.50419     0.56161     0.59897     0.61991     0.62667     0.61991    
 0.59897     0.56161     0.50419     0.42448     0.32783     0.23064     0.15177     0.99265E-01 0.69430E-01 0.55001E-01
 0.86918E-01 0.93131E-01 0.11336     0.15177     0.21228     0.29311     0.38304     0.46655     0.53339     0.58151    
 0.61331     0.63147     0.63740     0.63147     0.61331     0.58151     0.53339     0.46655     0.38304     0.29311    
 0.21228     0.15177     0.11336     0.93131E-01 0.15263     0.16084     0.18633     0.23064     0.29311     0.36776    
 0.44382     0.51096     0.56393     0.60250     0.62854     0.64369     0.64869     0.64369     0.62854     0.60250    
 0.56393     0.51096     0.44382     0.36776     0.29311     0.23064     0.18633     0.16084     0.24949     0.25842    