LaBr                                    
   1.00000000000000     
     4.192037    0.000000    0.000000
     0.000000    4.192037    0.000000
     0.000000    0.000000    4.192037
   Na
     2
Direct
  0.000000  0.000000  0.000000
  0.500000  0.500000  0.500000
 
   32   32   32
 0.47066E-11 0.22786E-03 0.16077E-01 0.12031     0.28761     0.36369     0.28184     0.11030     0.35421E-01 0.27267E-01
 0.46983E-01 0.10635     0.23405     0.38346     0.46952     0.50758     0.52027     0.50758     0.46952     0.38346    
 0.23405     0.10635     0.46983E-01 0.27267E-01 0.35421E-01 0.11030     0.28184     0.36369     0.28761     0.12031    
 0.16077E-01 0.22786E-03 0.22786E-03 0.20353E-02 0.29741E-01 0.14734     0.30424     0.36301     0.26826     0.10089    
 0.33757E-01 0.27678E-01 0.48813E-01 0.11067     0.24101     0.38868     0.47224     0.50964     0.52231     0.50964    
 0.47224     0.38868     0.24101     0.11067     0.48813E-01 0.27678E-01 0.33757E-01 0.10089     0.26826     0.36301    
 0.30424     0.14734     0.29741E-01 0.20353E-02 0.16077E-01 0.29741E-01 0.94042E-01 0.22499     0.34123     0.35181    
 0.22521     0.77361E-01 0.30018E-01 0.29347E-01 0.54844E-01 0.12445     0.26176     0.40317     0.47941     0.51486    
 0.52738     0.51486     0.47941     0.40317     0.26176     0.12445     0.54844E-01 0.29347E-01 0.30018E-01 0.77361E-01
 0.22521     0.35181     0.34123     0.22499     0.94042E-01 0.29741E-01 0.12031     0.14734     0.22499     0.31874    
 0.36376     0.30682     0.15537     0.51494E-01 0.26927E-01 0.33543E-01 0.66874E-01 0.15022     0.29558     0.42383    
 0.48888     0.52130     0.53335     0.52130     0.48888     0.42383     0.29558     0.15022     0.66874E-01 0.33543E-01
 0.26927E-01 0.51494E-01 0.15537     0.30682     0.36376     0.31874     0.22499     0.14734     0.28761     0.30424    
 0.34123     0.36376     0.32830     0.21055     0.84303E-01 0.33735E-01 0.27049E-01 0.42468E-01 0.88488E-01 0.19166    
 0.33973     0.44704     0.49909     0.52760     0.53858     0.52760     0.49909     0.44704     0.33973     0.19166    
 0.88488E-01 0.42468E-01 0.27049E-01 0.33735E-01 0.84303E-01 0.21055     0.32830     0.36376     0.34123     0.30424    
 0.36369     0.36301     0.35181     0.30682     0.21055     0.10064     0.41885E-01 0.26711E-01 0.32754E-01 0.59892E-01
 0.12581     0.25093     0.38827     0.46984     0.50972     0.53370     0.54286     0.53370     0.50972     0.46984    
 0.38827     0.25093     0.12581     0.59892E-01 0.32754E-01 0.26711E-01 0.41885E-01 0.10064     0.21055     0.30682    
 0.35181     0.36301     0.28184     0.26826     0.22521     0.15537     0.84303E-01 0.41885E-01 0.27331E-01 0.29569E-01
 0.47717E-01 0.92709E-01 0.18655     0.32316     0.43343     0.49056     0.52088     0.53980     0.54655     0.53980    
 0.52088     0.49056     0.43343     0.32316     0.18655     0.92709E-01 0.47717E-01 0.29569E-01 0.27331E-01 0.41885E-01
 0.84303E-01 0.15537     0.22521     0.26826     0.11030     0.10089     0.77361E-01 0.51494E-01 0.33735E-01 0.26711E-01
 0.29569E-01 0.44350E-01 0.79380E-01 0.15215     0.27193     0.39403     0.46963     0.50862     0.53188     0.54523    
 0.54938     0.54523     0.53188     0.50862     0.46963     0.39403     0.27193     0.15215     0.79380E-01 0.44350E-01
 0.29569E-01 0.26711E-01 0.33735E-01 0.51494E-01 0.77361E-01 0.10089     0.35421E-01 0.33757E-01 0.30018E-01 0.26927E-01
 0.27049E-01 0.32754E-01 0.47717E-01 0.79380E-01 0.14172     0.24569     0.36430     0.44943     0.49627     0.52386    
 0.54094     0.54867     0.55050     0.54867     0.54094     0.52386     0.49627     0.44943     0.36430     0.24569    
 0.14172     0.79380E-01 0.47717E-01 0.32754E-01 0.27049E-01 0.26927E-01 0.30018E-01 0.33757E-01 0.27267E-01 0.27678E-01
 0.29347E-01 0.33543E-01 0.42468E-01 0.59892E-01 0.92709E-01 0.15215     0.24569     0.35363     0.43737     0.48671    
 0.51613     0.53577     0.54638     0.54927     0.54938     0.54927     0.54638     0.53577     0.51613     0.48671    
 0.43737     0.35363     0.24569     0.15215     0.92709E-01 0.59892E-01 0.42468E-01 0.33543E-01 0.29347E-01 0.27678E-01
 0.46983E-01 0.48813E-01 0.54844E-01 0.66874E-01 0.88488E-01 0.12581     0.18655     0.27193     0.36430     0.43737    
 0.48337     0.51169     0.53111     0.54307     0.54751     0.54730     0.54655     0.54730     0.54751     0.54307    
 0.53111     0.51169     0.48337     0.43737     0.36430     0.27193     0.18655     0.12581     0.88488E-01 0.66874E-01
 0.54844E-01 0.48813E-01 0.10635     0.11067     0.12445     0.15022     0.19166     0.25093     0.32316     0.39403    
 0.44943     0.48671     0.51169     0.52936     0.54047     0.54489     0.54489     0.54355     0.54286     0.54355    
 0.54489     0.54489     0.54047     0.52936     0.51169     0.48671     0.44943     0.39403     0.32316     0.25093    
 0.19166     0.15022     0.12445     0.11067     0.23405     0.24101     0.26176     0.29558     0.33973     0.38827    
 0.43343     0.46963     0.49627     0.51613     0.53111     0.54047     0.54351     0.54228     0.54006     0.53883    
 0.53858     0.53883     0.54006     0.54228     0.54351     0.54047     0.53111     0.51613     0.49627     0.46963    
 0.43343     0.38827     0.33973     0.29558     0.26176     0.24101     0.38346     0.38868     0.40317     0.42383    
 0.44704     0.46984     0.49056     0.50862     0.52386     0.53577     0.54307     0.54489     0.54228     0.53802    
 0.53483     0.53355     0.53335     0.53355     0.53483     0.53802     0.54228     0.54489     0.54307     0.53577    
 0.52386     0.50862     0.49056     0.46984     0.44704     0.42383     0.40317     0.38868     0.46952     0.47224    
 0.47941     0.48888     0.49909     0.50972     0.52088     0.53188     0.54094     0.54638     0.54751     0.54489    
 0.54006     0.53483     0.53068     0.52821     0.52738     0.52821     0.53068     0.53483     0.54006     0.54489    
 0.54751     0.54638     0.54094     0.53188     0.52088     0.50972     0.49909     0.48888     0.47941     0.47224    
 0.50758     0.50964     0.51486     0.52130     0.52760     0.53370     0.53980     0.54523     0.54867     0.54927    
 0.54730     0.54355     0.53883     0.53355     0.52821     0.52396     0.52231     0.52396     0.52821     0.53355    
 0.53883     0.54355     0.54730     0.54927     0.54867     0.54523     0.53980     0.53370     0.52760     0.52130    
 0.51486     0.50964     0.52027     0.52231     0.52738     0.53335     0.53858     0.54286     0.54655     0.54938    
 0.55050     0.54938     0.54655     0.54286     0.53858     0.53335     0.52738     0.52231     0.52027     0.52231    
 0.52738     0.53335     0.53858     0.54286     0.54655     0.54938     0.55050     0.54938     0.54655     0.54286    
 0.53858     0.53335     0.52738     0.52231     0.50758     0.50964     0.51486     0.52130     0.52760     0.53370    
 0.53980     0.54523     0.54867     0.54927     0.54730     0.54355     0.53883     0.53355     0.52821     0.52396    
 0.52231     0.52396     0.52821     0.53355     0.53883     0.54355     0.54730     0.54927     0.54867     0.54523    
 0.53980     0.53370     0.52760     0.52130     0.51486     0.50964     0.46952     0.47224     0.47941     0.48888    
 0.49909     0.50972     0.52088     0.53188     0.54094     0.54638     0.54751     0.54489     0.54006     0.53483    
 0.53068     0.52821     0.52738     0.52821     0.53068     0.53483     0.54006     0.54489     0.54751     0.54638    
 0.54094     0.53188     0.52088     0.50972     0.49909     0.48888     0.47941     0.47224     0.38346     0.38868    
 0.40317     0.42383     0.44704     0.46984     0.49056     0.50862     0.52386     0.53577     0.54307     0.54489    
 0.54228     0.53802     0.53483     0.53355     0.53335     0.53355     0.53483     0.53802     0.54228     0.54489    
 0.54307     0.53577     0.52386     0.50862     0.49056     0.46984     0.44704     0.42383     0.40317     0.38868    
 0.23405     0.24101     0.26176     0.29558     0.33973     0.38827     0.43343     0.46963     0.49627     0.51613    
 0.53111     0.54047     0.54351     0.54228     0.54006     0.53883     0.53858     0.53883     0.54006     0.54228    
 0.54351     0.54047     0.53111     0.51613     0.49627     0.46963     0.43343     0.38827     0.33973     0.29558    
 0.26176     0.24101     0.10635     0.11067     0.12445     0.15022     0.19166     0.25093     0.32316     0.39403    
 0.44943     0.48671     0.51169     0.52936     0.54047     0.54489     0.54489     0.54355     0.54286     0.54355    
 0.54489     0.54489     0.54047     0.52936     0.51169     0.48671     0.44943     0.39403     0.32316     0.25093    
 0.19166     0.15022     0.12445     0.11067     0.46983E-01 0.48813E-01 0.54844E-01 0.66874E-01 0.88488E-01 0.12581    
 0.18655     0.27193     0.36430     0.43737     0.48337     0.51169     0.53111     0.54307     0.54751     0.54730    
 0.54655     0.54730     0.54751     0.54307     0.53111     0.51169     0.48337     0.43737     0.36430     0.27193    
 0.18655     0.12581     0.88488E-01 0.66874E-01 0.54844E-01 0.48813E-01 0.27267E-01 0.27678E-01 0.29347E-01 0.33543E-01
 0.42468E-01 0.59892E-01 0.92709E-01 0.15215     0.24569     0.35363     0.43737     0.48671     0.51613     0.53577    
 0.54638     0.54927     0.54938     0.54927     0.54638     0.53577     0.51613     0.48671     0.43737     0.35363    
 0.24569     0.15215     0.92709E-01 0.59892E-01 0.42468E-01 0.33543E-01 0.29347E-01 0.27678E-01 0.35421E-01 0.33757E-01
 0.30018E-01 0.26927E-01 0.27049E-01 0.32754E-01 0.47717E-01 0.79380E-01 0.14172     0.24569     0.36430     0.44943    
 0.49627     0.52386     0.54094     0.54867     0.55050     0.54867     0.54094     0.52386     0.49627     0.44943    
 0.36430     0.24569     0.14172     0.79380E-01 0.47717E-01 0.32754E-01 0.27049E-01 0.26927E-01 0.30018E-01 0.33757E-01
 0.11030     0.10089     0.77361E-01 0.51494E-01 0.33735E-01 0.26711E-01 0.29569E-01 0.44350E-01 0.79380E-01 0.15215    
 0.27193     0.39403     0.46963     0.50862     0.53188     0.54523     0.54938     0.54523     0.53188     0.50862    
 0.46963     0.39403     0.27193     0.15215     0.79380E-01 0.44350E-01 0.29569E-01 0.26711E-01 0.33735E-01 0.51494E-01
 0.77361E-01 0.10089     0.28184     0.26826     0.22521     0.15537     0.84303E-01 0.41885E-01 0.27331E-01 0.29569E-01
 0.47717E-01 0.92709E-01 0.18655     0.32316     0.43343     0.49056     0.52088     0.53980     0.54655     0.53980    
 0.52088     0.49056     0.43343     0.32316     0.18655     0.92709E-01 0.47717E-01 0.29569E-01 0.27331E-01 0.41885E-01
 0.84303E-01 0.15537     0.22521     0.26826     0.36369     0.36301     0.35181     0.30682     0.21055     0.10064    
 0.41885E-01 0.26711E-01 0.32754E-01 0.59892E-01 0.12581     0.25093     0.38827     0.46984     0.50972     0.53370    
 0.54286     0.53370     0.50972     0.46984     0.38827     0.25093     0.12581     0.59892E-01 0.32754E-01 0.26711E-01
 0.41885E-01 0.10064     0.21055     0.30682     0.35181     0.36301     0.28761     0.30424     0.34123     0.36376    
 0.32830     0.21055     0.84303E-01 0.33735E-01 0.27049E-01 0.42468E-01 0.88488E-01 0.19166     0.33973     0.44704    
 0.49909     0.52760     0.53858     0.52760     0.49909     0.44704     0.33973     0.19166     0.88488E-01 0.42468E-01
 0.27049E-01 0.33735E-01 0.84303E-01 0.21055     0.32830     0.36376     0.34123     0.30424     0.12031     0.14734    
 0.22499     0.31874     0.36376     0.30682     0.15537     0.51494E-01 0.26927E-01 0.33543E-01 0.66874E-01 0.15022    
 0.29558     0.42383     0.48888     0.52130     0.53335     0.52130     0.48888     0.42383     0.29558     0.15022    
 0.66874E-01 0.33543E-01 0.26927E-01 0.51494E-01 0.15537     0.30682     0.36376     0.31874     0.22499     0.14734    
 0.16077E-01 0.29741E-01 0.94042E-01 0.22499     0.34123     0.35181     0.22521     0.77361E-01 0.30018E-01 0.29347E-01
 0.54844E-01 0.12445     0.26176     0.40317     0.47941     0.51486     0.52738     0.51486     0.47941     0.40317    
 0.26176     0.12445     0.54844E-01 0.29347E-01 0.30018E-01 0.77361E-01 0.22521     0.35181     0.34123     0.22499    
 0.94042E-01 0.29741E-01 0.22786E-03 0.20353E-02 0.29741E-01 0.14734     0.30424     0.36301     0.26826     0.10089    
 0.33757E-01 0.27678E-01 0.48813E-01 0.11067     0.24101     0.38868     0.47224     0.50964     0.52231     0.50964    
 0.47224     0.38868     0.24101     0.11067     0.48813E-01 0.27678E-01 0.33757E-01 0.10089     0.26826     0.36301    
 0.30424     0.14734     0.29741E-01 0.20353E-02 0.22786E-03 0.20353E-02 0.29741E-01 0.14734     0.30424     0.36301    
 0.26826     0.10089     0.33757E-01 0.27678E-01 0.48813E-01 0.11067     0.24101     0.38868     0.47224     0.50964    
 0.52231     0.50964     0.47224     0.38868     0.24101     0.11067     0.48813E-01 0.27678E-01 0.33757E-01 0.10089    
 0.26826     0.36301     0.30424     0.14734     0.29741E-01 0.20353E-02 0.20353E-02 0.69741E-02 0.47771E-01 0.17424    
 0.31870     0.36076     0.25418     0.92281E-01 0.32318E-01 0.28165E-01 0.50731E-01 0.11511     0.24790     0.39361    
 0.47463     0.51134     0.52396     0.51134     0.47463     0.39361     0.24790     0.11511     0.50731E-01 0.28165E-01
 0.32318E-01 0.92281E-01 0.25418     0.36076     0.31870     0.17424     0.47771E-01 0.69741E-02 0.29741E-01 0.47771E-01
 0.12032     0.24792     0.34945     0.34523     0.21064     0.70981E-01 0.29130E-01 0.30050E-01 0.57042E-01 0.12929    
 0.26848     0.40733     0.48109     0.51580     0.52821     0.51580     0.48109     0.40733     0.26848     0.12929    
 0.57042E-01 0.30050E-01 0.29130E-01 0.70981E-01 0.21064     0.34523     0.34945     0.24792     0.12032     0.47771E-01
 0.14734     0.17424     0.24792     0.33105     0.36307     0.29465     0.14291     0.47902E-01 0.26674E-01 0.34599E-01
 0.69590E-01 0.15570     0.30194     0.42714     0.48999     0.52169     0.53355     0.52169     0.48999     0.42714    
 0.30194     0.15570     0.69590E-01 0.34599E-01 0.26674E-01 0.47902E-01 0.14291     0.29465     0.36307     0.33105    
 0.24792     0.17424     0.30424     0.31870     0.34945     0.36307     0.31807     0.19615     0.77245E-01 0.32311E-01
 0.27397E-01 0.44047E-01 0.92045E-01 0.19788     0.34543     0.44973     0.50017     0.52808     0.53883     0.52808    
 0.50017     0.44973     0.34543     0.19788     0.92045E-01 0.44047E-01 0.27397E-01 0.32311E-01 0.77245E-01 0.19615    
 0.31807     0.36307     0.34945     0.31870     0.36301     0.36076     0.34523     0.29465     0.19615     0.92079E-01
 0.39423E-01 0.26553E-01 0.33730E-01 0.62281E-01 0.13062     0.25762     0.39309     0.47227     0.51116     0.53464    
 0.54355     0.53464     0.51116     0.47227     0.39309     0.25762     0.13062     0.62281E-01 0.33730E-01 0.26553E-01
 0.39423E-01 0.92079E-01 0.19615     0.29465     0.34523     0.36076     0.26826     0.25418     0.21064     0.14291    
 0.77245E-01 0.39423E-01 0.26965E-01 0.30263E-01 0.49534E-01 0.96412E-01 0.19279     0.32949     0.43724     0.49276    
 0.52243     0.54082     0.54730     0.54082     0.52243     0.49276     0.43724     0.32949     0.19279     0.96412E-01
 0.49534E-01 0.30263E-01 0.26965E-01 0.39423E-01 0.77245E-01 0.14291     0.21064     0.25418     0.10089     0.92281E-01
 0.70981E-01 0.47902E-01 0.32311E-01 0.26553E-01 0.30263E-01 0.45996E-01 0.82569E-01 0.15774     0.27883     0.39899    
 0.47227     0.51014     0.53272     0.54542     0.54927     0.54542     0.53272     0.51014     0.47227     0.39899    
 0.27883     0.15774     0.82569E-01 0.45996E-01 0.30263E-01 0.26553E-01 0.32311E-01 0.47902E-01 0.70981E-01 0.92281E-01
 0.33757E-01 0.32318E-01 0.29130E-01 0.26674E-01 0.27397E-01 0.33730E-01 0.49534E-01 0.82569E-01 0.14705     0.25269    
 0.37011     0.45257     0.49756     0.52407     0.54020     0.54715     0.54867     0.54715     0.54020     0.52407    
 0.49756     0.45257     0.37011     0.25269     0.14705     0.82569E-01 0.49534E-01 0.33730E-01 0.27397E-01 0.26674E-01
 0.29130E-01 0.32318E-01 0.27678E-01 0.28165E-01 0.30050E-01 0.34599E-01 0.44047E-01 0.62281E-01 0.96412E-01 0.15774    
 0.25269     0.35973     0.44094     0.48800     0.51575     0.53398     0.54336     0.54542     0.54523     0.54542    
 0.54336     0.53398     0.51575     0.48800     0.44094     0.35973     0.25269     0.15774     0.96412E-01 0.62281E-01
 0.44047E-01 0.34599E-01 0.30050E-01 0.28165E-01 0.48813E-01 0.50731E-01 0.57042E-01 0.69590E-01 0.92045E-01 0.13062    
 0.19279     0.27883     0.37011     0.44094     0.48472     0.51108     0.52859     0.53879     0.54186     0.54082    
 0.53980     0.54082     0.54186     0.53879     0.52859     0.51108     0.48472     0.44094     0.37011     0.27883    
 0.19279     0.13062     0.92045E-01 0.69590E-01 0.57042E-01 0.50731E-01 0.11067     0.11511     0.12929     0.15570    
 0.19788     0.25762     0.32949     0.39899     0.45257     0.48800     0.51108     0.52663     0.53554     0.53809    
 0.53676     0.53464     0.53370     0.53464     0.53676     0.53809     0.53554     0.52663     0.51108     0.48800    
 0.45257     0.39899     0.32949     0.25762     0.19788     0.15570     0.12929     0.11511     0.24101     0.24790    
 0.26848     0.30194     0.34543     0.39309     0.43724     0.47227     0.49756     0.51575     0.52859     0.53554    
 0.53633     0.53338     0.53000     0.52808     0.52760     0.52808     0.53000     0.53338     0.53633     0.53554    
 0.52859     0.51575     0.49756     0.47227     0.43724     0.39309     0.34543     0.30194     0.26848     0.24790    
 0.38868     0.39361     0.40733     0.42714     0.44973     0.47227     0.49276     0.51014     0.52407     0.53398    
 0.53879     0.53809     0.53338     0.52765     0.52352     0.52169     0.52130     0.52169     0.52352     0.52765    
 0.53338     0.53809     0.53879     0.53398     0.52407     0.51014     0.49276     0.47227     0.44973     0.42714    
 0.40733     0.39361     0.47224     0.47463     0.48109     0.48999     0.50017     0.51116     0.52243     0.53272    
 0.54020     0.54336     0.54186     0.53676     0.53000     0.52352     0.51866     0.51580     0.51486     0.51580    
 0.51866     0.52352     0.53000     0.53676     0.54186     0.54336     0.54020     0.53272     0.52243     0.51116    
 0.50017     0.48999     0.48109     0.47463     0.50964     0.51134     0.51580     0.52169     0.52808     0.53464    
 0.54082     0.54542     0.54715     0.54542     0.54082     0.53464     0.52808     0.52169     0.51580     0.51134    
 0.50964     0.51134     0.51580     0.52169     0.52808     0.53464     0.54082     0.54542     0.54715     0.54542    
 0.54082     0.53464     0.52808     0.52169     0.51580     0.51134     0.52231     0.52396     0.52821     0.53355    
 0.53883     0.54355     0.54730     0.54927     0.54867     0.54523     0.53980     0.53370     0.52760     0.52130    
 0.51486     0.50964     0.50758     0.50964     0.51486     0.52130     0.52760     0.53370     0.53980     0.54523    
 0.54867     0.54927     0.54730     0.54355     0.53883     0.53355     0.52821     0.52396     0.50964     0.51134    
 0.51580     0.52169     0.52808     0.53464     0.54082     0.54542     0.54715     0.54542     0.54082     0.53464    
 0.52808     0.52169     0.51580     0.51134     0.50964     0.51134     0.51580     0.52169     0.52808     0.53464    
 0.54082     0.54542     0.54715     0.54542     0.54082     0.53464     0.52808     0.52169     0.51580     0.51134    
 0.47224     0.47463     0.48109     0.48999     0.50017     0.51116     0.52243     0.53272     0.54020     0.54336    
 0.54186     0.53676     0.53000     0.52352     0.51866     0.51580     0.51486     0.51580     0.51866     0.52352    
 0.53000     0.53676     0.54186     0.54336     0.54020     0.53272     0.52243     0.51116     0.50017     0.48999    
 0.48109     0.47463     0.38868     0.39361     0.40733     0.42714     0.44973     0.47227     0.49276     0.51014    
 0.52407     0.53398     0.53879     0.53809     0.53338     0.52765     0.52352     0.52169     0.52130     0.52169    
 0.52352     0.52765     0.53338     0.53809     0.53879     0.53398     0.52407     0.51014     0.49276     0.47227    
 0.44973     0.42714     0.40733     0.39361     0.24101     0.24790     0.26848     0.30194     0.34543     0.39309    
 0.43724     0.47227     0.49756     0.51575     0.52859     0.53554     0.53633     0.53338     0.53000     0.52808    
 0.52760     0.52808     0.53000     0.53338     0.53633     0.53554     0.52859     0.51575     0.49756     0.47227    
 0.43724     0.39309     0.34543     0.30194     0.26848     0.24790     0.11067     0.11511     0.12929     0.15570    
 0.19788     0.25762     0.32949     0.39899     0.45257     0.48800     0.51108     0.52663     0.53554     0.53809    
 0.53676     0.53464     0.53370     0.53464     0.53676     0.53809     0.53554     0.52663     0.51108     0.48800    
 0.45257     0.39899     0.32949     0.25762     0.19788     0.15570     0.12929     0.11511     0.48813E-01 0.50731E-01
 0.57042E-01 0.69590E-01 0.92045E-01 0.13062     0.19279     0.27883     0.37011     0.44094     0.48472     0.51108    
 0.52859     0.53879     0.54186     0.54082     0.53980     0.54082     0.54186     0.53879     0.52859     0.51108    
 0.48472     0.44094     0.37011     0.27883     0.19279     0.13062     0.92045E-01 0.69590E-01 0.57042E-01 0.50731E-01
 0.27678E-01 0.28165E-01 0.30050E-01 0.34599E-01 0.44047E-01 0.62281E-01 0.96412E-01 0.15774     0.25269     0.35973    
 0.44094     0.48800     0.51575     0.53398     0.54336     0.54542     0.54523     0.54542     0.54336     0.53398    
 0.51575     0.48800     0.44094     0.35973     0.25269     0.15774     0.96412E-01 0.62281E-01 0.44047E-01 0.34599E-01
 0.30050E-01 0.28165E-01 0.33757E-01 0.32318E-01 0.29130E-01 0.26674E-01 0.27397E-01 0.33730E-01 0.49534E-01 0.82569E-01
 0.14705     0.25269     0.37011     0.45257     0.49756     0.52407     0.54020     0.54715     0.54867     0.54715    
 0.54020     0.52407     0.49756     0.45257     0.37011     0.25269     0.14705     0.82569E-01 0.49534E-01 0.33730E-01
 0.27397E-01 0.26674E-01 0.29130E-01 0.32318E-01 0.10089     0.92281E-01 0.70981E-01 0.47902E-01 0.32311E-01 0.26553E-01
 0.30263E-01 0.45996E-01 0.82569E-01 0.15774     0.27883     0.39899     0.47227     0.51014     0.53272     0.54542    
 0.54927     0.54542     0.53272     0.51014     0.47227     0.39899     0.27883     0.15774     0.82569E-01 0.45996E-01
 0.30263E-01 0.26553E-01 0.32311E-01 0.47902E-01 0.70981E-01 0.92281E-01 0.26826     0.25418     0.21064     0.14291    
 0.77245E-01 0.39423E-01 0.26965E-01 0.30263E-01 0.49534E-01 0.96412E-01 0.19279     0.32949     0.43724     0.49276    
 0.52243     0.54082     0.54730     0.54082     0.52243     0.49276     0.43724     0.32949     0.19279     0.96412E-01
 0.49534E-01 0.30263E-01 0.26965E-01 0.39423E-01 0.77245E-01 0.14291     0.21064     0.25418     0.36301     0.36076    
 0.34523     0.29465     0.19615     0.92079E-01 0.39423E-01 0.26553E-01 0.33730E-01 0.62281E-01 0.13062     0.25762    
 0.39309     0.47227     0.51116     0.53464     0.54355     0.53464     0.51116     0.47227     0.39309     0.25762    
 0.13062     0.62281E-01 0.33730E-01 0.26553E-01 0.39423E-01 0.92079E-01 0.19615     0.29465     0.34523     0.36076    
 0.30424     0.31870     0.34945     0.36307     0.31807     0.19615     0.77245E-01 0.32311E-01 0.27397E-01 0.44047E-01
 0.92045E-01 0.19788     0.34543     0.44973     0.50017     0.52808     0.53883     0.52808     0.50017     0.44973    
 0.34543     0.19788     0.92045E-01 0.44047E-01 0.27397E-01 0.32311E-01 0.77245E-01 0.19615     0.31807     0.36307    
 0.34945     0.31870     0.14734     0.17424     0.24792     0.33105     0.36307     0.29465     0.14291     0.47902E-01
 0.26674E-01 0.34599E-01 0.69590E-01 0.15570     0.30194     0.42714     0.48999     0.52169     0.53355     0.52169    
 0.48999     0.42714     0.30194     0.15570     0.69590E-01 0.34599E-01 0.26674E-01 0.47902E-01 0.14291     0.29465    
 0.36307     0.33105     0.24792     0.17424     0.29741E-01 0.47771E-01 0.12032     0.24792     0.34945     0.34523    
 0.21064     0.70981E-01 0.29130E-01 0.30050E-01 0.57042E-01 0.12929     0.26848     0.40733     0.48109     0.51580    
 0.52821     0.51580     0.48109     0.40733     0.26848     0.12929     0.57042E-01 0.30050E-01 0.29130E-01 0.70981E-01
 0.21064     0.34523     0.34945     0.24792     0.12032     0.47771E-01 0.20353E-02 0.69741E-02 0.47771E-01 0.17424    
 0.31870     0.36076     0.25418     0.92281E-01 0.32318E-01 0.28165E-01 0.50731E-01 0.11511     0.24790     0.39361    
 0.47463     0.51134     0.52396     0.51134     0.47463     0.39361     0.24790     0.11511     0.50731E-01 0.28165E-01
 0.32318E-01 0.92281E-01 0.25418     0.36076     0.31870     0.17424     0.47771E-01 0.69741E-02 0.16077E-01 0.29741E-01
 0.94042E-01 0.22499     0.34123     0.35181     0.22521     0.77361E-01 0.30018E-01 0.29347E-01 0.54844E-01 0.12445    
 0.26176     0.40317     0.47941     0.51486     0.52738     0.51486     0.47941     0.40317     0.26176     0.12445    
 0.54844E-01 0.29347E-01 0.30018E-01 0.77361E-01 0.22521     0.35181     0.34123     0.22499     0.94042E-01 0.29741E-01
 0.29741E-01 0.47771E-01 0.12032     0.24792     0.34945     0.34523     0.21064     0.70981E-01 0.29130E-01 0.30050E-01
 0.57042E-01 0.12929     0.26848     0.40733     0.48109     0.51580     0.52821     0.51580     0.48109     0.40733    
 0.26848     0.12929     0.57042E-01 0.30050E-01 0.29130E-01 0.70981E-01 0.21064     0.34523     0.34945     0.24792    
 0.12032     0.47771E-01 0.94042E-01 0.12032     0.20032     0.30431     0.36281     0.31804     0.16847     0.55568E-01
 0.27307E-01 0.32576E-01 0.64241E-01 0.14464     0.28846     0.41916     0.48598     0.51866     0.53068     0.51866    
 0.48598     0.41916     0.28846     0.14464     0.64241E-01 0.32576E-01 0.27307E-01 0.55568E-01 0.16847     0.31804    
 0.36281     0.30431     0.20032     0.12032     0.22499     0.24792     0.30431     0.35577     0.35184     0.25405    
 0.11004     0.39453E-01 0.26489E-01 0.38199E-01 0.78437E-01 0.17293     0.32072     0.43683     0.49375     0.52352    
 0.53483     0.52352     0.49375     0.43683     0.32072     0.17293     0.78437E-01 0.38199E-01 0.26489E-01 0.39453E-01
 0.11004     0.25405     0.35184     0.35577     0.30431     0.24792     0.34123     0.34945     0.36281     0.35184    
 0.28171     0.15530     0.60061E-01 0.29149E-01 0.28877E-01 0.49297E-01 0.10358     0.21717     0.36217     0.45774    
 0.50379     0.53000     0.54006     0.53000     0.50379     0.45774     0.36217     0.21717     0.10358     0.49297E-01
 0.28877E-01 0.29149E-01 0.60061E-01 0.15530     0.28171     0.35184     0.36281     0.34945     0.35181     0.34523    
 0.31804     0.25405     0.15530     0.70864E-01 0.33725E-01 0.26625E-01 0.37106E-01 0.70142E-01 0.14600     0.27778    
 0.40677     0.47889     0.51487     0.53676     0.54489     0.53676     0.51487     0.47889     0.40677     0.27778    
 0.14600     0.70142E-01 0.37106E-01 0.26625E-01 0.33725E-01 0.70864E-01 0.15530     0.25405     0.31804     0.34523    
 0.22521     0.21064     0.16847     0.11004     0.60061E-01 0.33725E-01 0.26484E-01 0.32779E-01 0.55581E-01 0.10845    
 0.21209     0.34751     0.44701     0.49760     0.52517     0.54186     0.54751     0.54186     0.52517     0.49760    
 0.44701     0.34751     0.21209     0.10845     0.55581E-01 0.32779E-01 0.26484E-01 0.33725E-01 0.60061E-01 0.11004    
 0.16847     0.21064     0.77361E-01 0.70981E-01 0.55568E-01 0.39453E-01 0.29149E-01 0.26625E-01 0.32779E-01 0.51497E-01
 0.92995E-01 0.17527     0.29883     0.41182     0.47778     0.51216     0.53259     0.54336     0.54638     0.54336    
 0.53259     0.51216     0.47778     0.41182     0.29883     0.17527     0.92995E-01 0.51497E-01 0.32779E-01 0.26625E-01
 0.29149E-01 0.39453E-01 0.55568E-01 0.70981E-01 0.30018E-01 0.29130E-01 0.27307E-01 0.26489E-01 0.28877E-01 0.37106E-01
 0.55581E-01 0.92995E-01 0.16387     0.27319     0.38532     0.45922     0.49864     0.52186     0.53531     0.54020    
 0.54094     0.54020     0.53531     0.52186     0.49864     0.45922     0.38532     0.27319     0.16387     0.92995E-01
 0.55581E-01 0.37106E-01 0.28877E-01 0.26489E-01 0.27307E-01 0.29130E-01 0.29347E-01 0.30050E-01 0.32576E-01 0.38199E-01
 0.49297E-01 0.70142E-01 0.10845     0.17527     0.27319     0.37584     0.44869     0.48890     0.51191     0.52632    
 0.53259     0.53272     0.53188     0.53272     0.53259     0.52632     0.51191     0.48890     0.44869     0.37584    
 0.27319     0.17527     0.10845     0.70142E-01 0.49297E-01 0.38199E-01 0.32576E-01 0.30050E-01 0.54844E-01 0.57042E-01
 0.64241E-01 0.78437E-01 0.10358     0.14600     0.21209     0.29883     0.38532     0.44869     0.48574     0.50659    
 0.51921     0.52516     0.52517     0.52243     0.52088     0.52243     0.52517     0.52516     0.51921     0.50659    
 0.48574     0.44869     0.38532     0.29883     0.21209     0.14600     0.10358     0.78437E-01 0.64241E-01 0.57042E-01
 0.12445     0.12929     0.14464     0.17293     0.21717     0.27778     0.34751     0.41182     0.45922     0.48890    
 0.50659     0.51674     0.52054     0.51899     0.51487     0.51116     0.50972     0.51116     0.51487     0.51899    
 0.52054     0.51674     0.50659     0.48890     0.45922     0.41182     0.34751     0.27778     0.21717     0.17293    
 0.14464     0.12929     0.26176     0.26848     0.28846     0.32072     0.36217     0.40677     0.44701     0.47778    
 0.49864     0.51191     0.51921     0.52054     0.51648     0.50984     0.50379     0.50017     0.49909     0.50017    