LaBr                                    
   1.00000000000000     
     4.024635    0.000000    0.000000
     2.012318    3.485436    0.000000
     2.012318    1.161812    3.286101
   Na   Cl
     1     1
Direct
  0.000000  0.000000  0.000000
  0.500000  0.500000  0.500000
 
   30   30   30
 0.77410E-10 0.27222E-03 0.18747E-01 0.13486     0.29932     0.31964     0.16955     0.78650E-01 0.99027E-01 0.20327    
 0.29454     0.32288     0.31971     0.30504     0.29118     0.28573     0.29118     0.30504     0.31971     0.32288    
 0.29454     0.20327     0.99027E-01 0.78650E-01 0.16955     0.31964     0.29932     0.13486     0.18747E-01 0.27222E-03
 0.27222E-03 0.81821E-02 0.79305E-01 0.24234     0.33678     0.24260     0.10224     0.78350E-01 0.14942     0.26183    
 0.31639     0.32449     0.31356     0.29809     0.28793     0.28793     0.29809     0.31356     0.32449     0.31639    
 0.26183     0.14942     0.78350E-01 0.10224     0.24260     0.33678     0.24234     0.79305E-01 0.81821E-02 0.27222E-03
 0.18747E-01 0.79305E-01 0.21805     0.33037     0.28615     0.13463     0.75307E-01 0.11423     0.22503     0.30515    
 0.32714     0.32204     0.30721     0.29384     0.28867     0.29384     0.30721     0.32204     0.32714     0.30515    
 0.22503     0.11423     0.75307E-01 0.13463     0.28615     0.33037     0.21805     0.79305E-01 0.18747E-01 0.81821E-02
 0.13486     0.24234     0.33037     0.29888     0.15686     0.78908E-01 0.96364E-01 0.19393     0.29140     0.32772    
 0.32925     0.31664     0.30179     0.29259     0.29259     0.30179     0.31664     0.32925     0.32772     0.29140    
 0.19393     0.96364E-01 0.78908E-01 0.15686     0.29888     0.33037     0.24234     0.13486     0.79305E-01 0.79305E-01
 0.29932     0.33678     0.28615     0.15686     0.81170E-01 0.89476E-01 0.17452     0.27908     0.32715     0.33485    
 0.32501     0.30997     0.29816     0.29384     0.29816     0.30997     0.32501     0.33485     0.32715     0.27908    
 0.17452     0.89476E-01 0.81170E-01 0.15686     0.28615     0.33678     0.29932     0.24234     0.21805     0.24234    
 0.31964     0.24260     0.13463     0.78908E-01 0.89476E-01 0.16809     0.27193     0.32645     0.33893     0.33171    
 0.31718     0.30396     0.29663     0.29663     0.30396     0.31718     0.33171     0.33893     0.32645     0.27193    
 0.16809     0.89476E-01 0.78908E-01 0.13463     0.24260     0.31964     0.33678     0.33037     0.33037     0.33678    
 0.16955     0.10224     0.75307E-01 0.96364E-01 0.17452     0.27193     0.32618     0.34122     0.33627     0.32274    
 0.30903     0.29993     0.29687     0.29993     0.30903     0.32274     0.33627     0.34122     0.32618     0.27193    
 0.17452     0.96364E-01 0.75307E-01 0.10224     0.16955     0.24260     0.28615     0.29888     0.28615     0.24260    
 0.78650E-01 0.78350E-01 0.11423     0.19393     0.27908     0.32645     0.34122     0.33794     0.32586     0.31259    
 0.30285     0.29807     0.29807     0.30285     0.31259     0.32586     0.33794     0.34122     0.32645     0.27908    
 0.19393     0.11423     0.78350E-01 0.78650E-01 0.10224     0.13463     0.15686     0.15686     0.13463     0.10224    
 0.99027E-01 0.14942     0.22503     0.29140     0.32715     0.33893     0.33627     0.32586     0.31389     0.30457    
 0.29928     0.29765     0.29928     0.30457     0.31389     0.32586     0.33627     0.33893     0.32715     0.29140    
 0.22503     0.14942     0.99027E-01 0.78350E-01 0.75307E-01 0.78908E-01 0.81170E-01 0.78908E-01 0.75307E-01 0.78350E-01
 0.20327     0.26183     0.30515     0.32772     0.33485     0.33171     0.32274     0.31259     0.30457     0.29978    
 0.29774     0.29774     0.29978     0.30457     0.31259     0.32274     0.33171     0.33485     0.32772     0.30515    
 0.26183     0.20327     0.14942     0.11423     0.96364E-01 0.89476E-01 0.89476E-01 0.96364E-01 0.11423     0.14942    
 0.29454     0.31639     0.32714     0.32925     0.32501     0.31718     0.30903     0.30285     0.29928     0.29774    
 0.29734     0.29774     0.29928     0.30285     0.30903     0.31718     0.32501     0.32925     0.32714     0.31639    
 0.29454     0.26183     0.22503     0.19393     0.17452     0.16809     0.17452     0.19393     0.22503     0.26183    
 0.32288     0.32449     0.32204     0.31664     0.30997     0.30396     0.29993     0.29807     0.29765     0.29774    
 0.29774     0.29765     0.29807     0.29993     0.30396     0.30997     0.31664     0.32204     0.32449     0.32288    
 0.31639     0.30515     0.29140     0.27908     0.27193     0.27193     0.27908     0.29140     0.30515     0.31639    
 0.31971     0.31356     0.30721     0.30179     0.29816     0.29663     0.29687     0.29807     0.29928     0.29978    
 0.29928     0.29807     0.29687     0.29663     0.29816     0.30179     0.30721     0.31356     0.31971     0.32449    
 0.32714     0.32772     0.32715     0.32645     0.32618     0.32645     0.32715     0.32772     0.32714     0.32449    
 0.30504     0.29809     0.29384     0.29259     0.29384     0.29663     0.29993     0.30285     0.30457     0.30457    
 0.30285     0.29993     0.29663     0.29384     0.29259     0.29384     0.29809     0.30504     0.31356     0.32204    
 0.32925     0.33485     0.33893     0.34122     0.34122     0.33893     0.33485     0.32925     0.32204     0.31356    
 0.29118     0.28793     0.28867     0.29259     0.29816     0.30396     0.30903     0.31259     0.31389     0.31259    
 0.30903     0.30396     0.29816     0.29259     0.28867     0.28793     0.29118     0.29809     0.30721     0.31664    
 0.32501     0.33171     0.33627     0.33794     0.33627     0.33171     0.32501     0.31664     0.30721     0.29809    
 0.28573     0.28793     0.29384     0.30179     0.30997     0.31718     0.32274     0.32586     0.32586     0.32274    
 0.31718     0.30997     0.30179     0.29384     0.28793     0.28573     0.28793     0.29384     0.30179     0.30997    
 0.31718     0.32274     0.32586     0.32586     0.32274     0.31718     0.30997     0.30179     0.29384     0.28793    
 0.29118     0.29809     0.30721     0.31664     0.32501     0.33171     0.33627     0.33794     0.33627     0.33171    
 0.32501     0.31664     0.30721     0.29809     0.29118     0.28793     0.28867     0.29259     0.29816     0.30396    
 0.30903     0.31259     0.31389     0.31259     0.30903     0.30396     0.29816     0.29259     0.28867     0.28793    
 0.30504     0.31356     0.32204     0.32925     0.33485     0.33893     0.34122     0.34122     0.33893     0.33485    
 0.32925     0.32204     0.31356     0.30504     0.29809     0.29384     0.29259     0.29384     0.29663     0.29993    
 0.30285     0.30457     0.30457     0.30285     0.29993     0.29663     0.29384     0.29259     0.29384     0.29809    
 0.31971     0.32449     0.32714     0.32772     0.32715     0.32645     0.32618     0.32645     0.32715     0.32772    
 0.32714     0.32449     0.31971     0.31356     0.30721     0.30179     0.29816     0.29663     0.29687     0.29807    
 0.29928     0.29978     0.29928     0.29807     0.29687     0.29663     0.29816     0.30179     0.30721     0.31356    
 0.32288     0.31639     0.30515     0.29140     0.27908     0.27193     0.27193     0.27908     0.29140     0.30515    
 0.31639     0.32288     0.32449     0.32204     0.31664     0.30997     0.30396     0.29993     0.29807     0.29765    
 0.29774     0.29774     0.29765     0.29807     0.29993     0.30396     0.30997     0.31664     0.32204     0.32449    
 0.29454     0.26183     0.22503     0.19393     0.17452     0.16809     0.17452     0.19393     0.22503     0.26183    
 0.29454     0.31639     0.32714     0.32925     0.32501     0.31718     0.30903     0.30285     0.29928     0.29774    
 0.29734     0.29774     0.29928     0.30285     0.30903     0.31718     0.32501     0.32925     0.32714     0.31639    
 0.20327     0.14942     0.11423     0.96364E-01 0.89476E-01 0.89476E-01 0.96364E-01 0.11423     0.14942     0.20327    
 0.26183     0.30515     0.32772     0.33485     0.33171     0.32274     0.31259     0.30457     0.29978     0.29774    
 0.29774     0.29978     0.30457     0.31259     0.32274     0.33171     0.33485     0.32772     0.30515     0.26183    
 0.99027E-01 0.78350E-01 0.75307E-01 0.78908E-01 0.81170E-01 0.78908E-01 0.75307E-01 0.78350E-01 0.99027E-01 0.14942    
 0.22503     0.29140     0.32715     0.33893     0.33627     0.32586     0.31389     0.30457     0.29928     0.29765    
 0.29928     0.30457     0.31389     0.32586     0.33627     0.33893     0.32715     0.29140     0.22503     0.14942    
 0.78650E-01 0.10224     0.13463     0.15686     0.15686     0.13463     0.10224     0.78650E-01 0.78350E-01 0.11423    
 0.19393     0.27908     0.32645     0.34122     0.33794     0.32586     0.31259     0.30285     0.29807     0.29807    
 0.30285     0.31259     0.32586     0.33794     0.34122     0.32645     0.27908     0.19393     0.11423     0.78350E-01
 0.16955     0.24260     0.28615     0.29888     0.28615     0.24260     0.16955     0.10224     0.75307E-01 0.96364E-01
 0.17452     0.27193     0.32618     0.34122     0.33627     0.32274     0.30903     0.29993     0.29687     0.29993    
 0.30903     0.32274     0.33627     0.34122     0.32618     0.27193     0.17452     0.96364E-01 0.75307E-01 0.10224    
 0.31964     0.33678     0.33037     0.33037     0.33678     0.31964     0.24260     0.13463     0.78908E-01 0.89476E-01
 0.16809     0.27193     0.32645     0.33893     0.33171     0.31718     0.30396     0.29663     0.29663     0.30396    
 0.31718     0.33171     0.33893     0.32645     0.27193     0.16809     0.89476E-01 0.78908E-01 0.13463     0.24260    
 0.29932     0.24234     0.21805     0.24234     0.29932     0.33678     0.28615     0.15686     0.81170E-01 0.89476E-01
 0.17452     0.27908     0.32715     0.33485     0.32501     0.30997     0.29816     0.29384     0.29816     0.30997    
 0.32501     0.33485     0.32715     0.27908     0.17452     0.89476E-01 0.81170E-01 0.15686     0.28615     0.33678    
 0.13486     0.79305E-01 0.79305E-01 0.13486     0.24234     0.33037     0.29888     0.15686     0.78908E-01 0.96364E-01
 0.19393     0.29140     0.32772     0.32925     0.31664     0.30179     0.29259     0.29259     0.30179     0.31664    
 0.32925     0.32772     0.29140     0.19393     0.96364E-01 0.78908E-01 0.15686     0.29888     0.33037     0.24234    
 0.18747E-01 0.81821E-02 0.18747E-01 0.79305E-01 0.21805     0.33037     0.28615     0.13463     0.75307E-01 0.11423    
 0.22503     0.30515     0.32714     0.32204     0.30721     0.29384     0.28867     0.29384     0.30721     0.32204    
 0.32714     0.30515     0.22503     0.11423     0.75307E-01 0.13463     0.28615     0.33037     0.21805     0.79305E-01
 0.27222E-03 0.27222E-03 0.81821E-02 0.79305E-01 0.24234     0.33678     0.24260     0.10224     0.78350E-01 0.14942    
 0.26183     0.31639     0.32449     0.31356     0.29809     0.28793     0.28793     0.29809     0.31356     0.32449    
 0.31639     0.26183     0.14942     0.78350E-01 0.10224     0.24260     0.33678     0.24234     0.79305E-01 0.81821E-02
 0.27222E-03 0.81821E-02 0.79305E-01 0.24234     0.33678     0.24260     0.10224     0.78350E-01 0.14942     0.26183    
 0.31639     0.32449     0.31356     0.29809     0.28793     0.28793     0.29809     0.31356     0.32449     0.31639    
 0.26183     0.14942     0.78350E-01 0.10224     0.24260     0.33678     0.24234     0.79305E-01 0.81821E-02 0.27222E-03
 0.81821E-02 0.54972E-01 0.19179     0.32321     0.29911     0.14582     0.76932E-01 0.11174     0.22678     0.31674    
 0.34354     0.33965     0.32430     0.31000     0.30442     0.31000     0.32430     0.33965     0.34354     0.31674    
 0.22678     0.11174     0.76932E-01 0.14582     0.29911     0.32321     0.19179     0.54972E-01 0.81821E-02 0.24022E-02
 0.79305E-01 0.19179     0.31306     0.32018     0.18373     0.85412E-01 0.92467E-01 0.19119     0.30782     0.35755    
 0.36392     0.35172     0.33539     0.32489     0.32489     0.33539     0.35172     0.36392     0.35755     0.30782    
 0.19119     0.92467E-01 0.85412E-01 0.18373     0.32018     0.31306     0.19179     0.79305E-01 0.34417E-01 0.34417E-01
 0.24234     0.32321     0.32018     0.19800     0.93304E-01 0.84922E-01 0.16553     0.29378     0.36518     0.38320    
 0.37630     0.36031     0.34658     0.34140     0.34658     0.36031     0.37630     0.38320     0.36518     0.29378    
 0.16553     0.84922E-01 0.93304E-01 0.19800     0.32018     0.32321     0.24234     0.16342     0.13464     0.16342    
 0.33678     0.29911     0.18373     0.93304E-01 0.83133E-01 0.15293     0.28165     0.36782     0.39635     0.39537    
 0.38137     0.36627     0.35736     0.35736     0.36627     0.38137     0.39537     0.39635     0.36782     0.28165    
 0.15293     0.83133E-01 0.93304E-01 0.18373     0.29911     0.33678     0.31226     0.28270     0.28270     0.31226    
 0.24260     0.14582     0.85412E-01 0.84922E-01 0.15293     0.27697     0.36816     0.40381     0.40818     0.39698    
 0.38193     0.37088     0.36702     0.37088     0.38193     0.39698     0.40818     0.40381     0.36816     0.27697    
 0.15293     0.84922E-01 0.85412E-01 0.14582     0.24260     0.30976     0.33231     0.33544     0.33231     0.30976    
 0.10224     0.76932E-01 0.92467E-01 0.16553     0.28165     0.36816     0.40623     0.41466     0.40666     0.39282    
 0.38108     0.37494     0.37494     0.38108     0.39282     0.40666     0.41466     0.40623     0.36816     0.28165    
 0.16553     0.92467E-01 0.76932E-01 0.10224     0.15630     0.21114     0.24149     0.24149     0.21114     0.15630    
 0.78350E-01 0.11174     0.19119     0.29378     0.36782     0.40381     0.41466     0.40999     0.39852     0.38755    
 0.38069     0.37848     0.38069     0.38755     0.39852     0.40999     0.41466     0.40381     0.36782     0.29378    
 0.19119     0.11174     0.78350E-01 0.75993E-01 0.89924E-01 0.10694     0.11440     0.10694     0.89924E-01 0.75993E-01
 0.14942     0.22678     0.30782     0.36518     0.39635     0.40818     0.40666     0.39852     0.38980     0.38379    
 0.38102     0.38102     0.38379     0.38980     0.39852     0.40666     0.40818     0.39635     0.36518     0.30782    
 0.22678     0.14942     0.10105     0.79548E-01 0.72918E-01 0.72018E-01 0.72018E-01 0.72918E-01 0.79548E-01 0.10105    
 0.26183     0.31674     0.35755     0.38320     0.39537     0.39698     0.39282     0.38755     0.38379     0.38196    
 0.38147     0.38196     0.38379     0.38755     0.39282     0.39698     0.39537     0.38320     0.35755     0.31674    
 0.26183     0.20251     0.15365     0.12241     0.10659     0.10191     0.10659     0.12241     0.15365     0.20251    
 0.31639     0.34354     0.36392     0.37630     0.38137     0.38193     0.38108     0.38069     0.38102     0.38147    
 0.38147     0.38102     0.38069     0.38108     0.38193     0.38137     0.37630     0.36392     0.34354     0.31639    
 0.28435     0.25054     0.22001     0.19765     0.18612     0.18612     0.19765     0.22001     0.25054     0.28435    
 0.32449     0.33965     0.35172     0.36031     0.36627     0.37088     0.37494     0.37848     0.38102     0.38196    
 0.38102     0.37848     0.37494     0.37088     0.36627     0.36031     0.35172     0.33965     0.32449     0.30785    
 0.29140     0.27655     0.26462     0.25689     0.25422     0.25689     0.26462     0.27655     0.29140     0.30785    
 0.31356     0.32430     0.33539     0.34658     0.35736     0.36702     0.37494     0.38069     0.38379     0.38379    
 0.38069     0.37494     0.36702     0.35736     0.34658     0.33539     0.32430     0.31356     0.30354     0.29480    
 0.28788     0.28310     0.28040     0.27929     0.27929     0.28040     0.28310     0.28788     0.29480     0.30354    
 0.29809     0.31000     0.32489     0.34140     0.35736     0.37088     0.38108     0.38755     0.38980     0.38755    
 0.38108     0.37088     0.35736     0.34140     0.32489     0.31000     0.29809     0.28942     0.28363     0.28024    
 0.27878     0.27878     0.27944     0.27981     0.27944     0.27878     0.27878     0.28024     0.28363     0.28942    
 0.28793     0.30442     0.32489     0.34658     0.36627     0.38193     0.39282     0.39852     0.39852     0.39282    
 0.38193     0.36627     0.34658     0.32489     0.30442     0.28793     0.27648     0.26974     0.26672     0.26633    
 0.26759     0.26947     0.27084     0.27084     0.26947     0.26759     0.26633     0.26672     0.26974     0.27648    
 0.28793     0.31000     0.33539     0.36031     0.38137     0.39698     0.40666     0.40999     0.40666     0.39698    
 0.38137     0.36031     0.33539     0.31000     0.28793     0.27144     0.26093     0.25556     0.25411     0.25521    
 0.25753     0.25970     0.26058     0.25970     0.25753     0.25521     0.25411     0.25556     0.26093     0.27144    
 0.29809     0.32430     0.35172     0.37630     0.39537     0.40818     0.41466     0.41466     0.40818     0.39537    
 0.37630     0.35172     0.32430     0.29809     0.27648     0.26093     0.25138     0.24702     0.24656     0.24842    
 0.25094     0.25263     0.25263     0.25094     0.24842     0.24656     0.24702     0.25138     0.26093     0.27648    
 0.31356     0.33965     0.36392     0.38320     0.39635     0.40381     0.40623     0.40381     0.39635     0.38320    
 0.36392     0.33965     0.31356     0.28942     0.26974     0.25556     0.24702     0.24356     0.24384     0.24601    
 0.24821     0.24910     0.24821     0.24601     0.24384     0.24356     0.24702     0.25556     0.26974     0.28942    
 0.32449     0.34354     0.35755     0.36518     0.36782     0.36816     0.36816     0.36782     0.36518     0.35755    
 0.34354     0.32449     0.30354     0.28363     0.26672     0.25411     0.24656     0.24384     0.24452     0.24653    
 0.24805     0.24805     0.24653     0.24452     0.24384     0.24656     0.25411     0.26672     0.28363     0.30354    
 0.31639     0.31674     0.30782     0.29378     0.28165     0.27697     0.28165     0.29378     0.30782     0.31674    
 0.31639     0.30785     0.29480     0.28024     0.26633     0.25521     0.24842     0.24601     0.24653     0.24793    
 0.24860     0.24793     0.24653     0.24601     0.24842     0.25521     0.26633     0.28024     0.29480     0.30785    
 0.26183     0.22678     0.19119     0.16553     0.15293     0.15293     0.16553     0.19119     0.22678     0.26183    
 0.28435     0.29140     0.28788     0.27878     0.26759     0.25753     0.25094     0.24821     0.24805     0.24860    
 0.24860     0.24805     0.24821     0.25094     0.25753     0.26759     0.27878     0.28788     0.29140     0.28435    
 0.14942     0.11174     0.92467E-01 0.84922E-01 0.83133E-01 0.84922E-01 0.92467E-01 0.11174     0.14942     0.20251    
 0.25054     0.27655     0.28310     0.27878     0.26947     0.25970     0.25263     0.24910     0.24805     0.24793    
 0.24805     0.24910     0.25263     0.25970     0.26947     0.27878     0.28310     0.27655     0.25054     0.20251    
 0.78350E-01 0.76932E-01 0.85412E-01 0.93304E-01 0.93304E-01 0.85412E-01 0.76932E-01 0.78350E-01 0.10105     0.15365    
 0.22001     0.26462     0.28040     0.27944     0.27084     0.26058     0.25263     0.24821     0.24653     0.24653    
 0.24821     0.25263     0.26058     0.27084     0.27944     0.28040     0.26462     0.22001     0.15365     0.10105    
 0.10224     0.14582     0.18373     0.19800     0.18373     0.14582     0.10224     0.75993E-01 0.79548E-01 0.12241    
 0.19765     0.25689     0.27929     0.27981     0.27084     0.25970     0.25094     0.24601     0.24452     0.24601    
 0.25094     0.25970     0.27084     0.27981     0.27929     0.25689     0.19765     0.12241     0.79548E-01 0.75993E-01
 0.24260     0.29911     0.32018     0.32018     0.29911     0.24260     0.15630     0.89924E-01 0.72918E-01 0.10659    
 0.18612     0.25422     0.27929     0.27944     0.26947     0.25753     0.24842     0.24384     0.24384     0.24842    
 0.25753     0.26947     0.27944     0.27929     0.25422     0.18612     0.10659     0.72918E-01 0.89924E-01 0.15630    
 0.33678     0.32321     0.31306     0.32321     0.33678     0.30976     0.21114     0.10694     0.72018E-01 0.10191    
 0.18612     0.25689     0.28040     0.27878     0.26759     0.25521     0.24656     0.24356     0.24656     0.25521    
 0.26759     0.27878     0.28040     0.25689     0.18612     0.10191     0.72018E-01 0.10694     0.21114     0.30976    
 0.24234     0.19179     0.19179     0.24234     0.31226     0.33231     0.24149     0.11440     0.72018E-01 0.10659    
 0.19765     0.26462     0.28310     0.27878     0.26633     0.25411     0.24702     0.24702     0.25411     0.26633    
 0.27878     0.28310     0.26462     0.19765     0.10659     0.72018E-01 0.11440     0.24149     0.33231     0.31226    
 0.79305E-01 0.54972E-01 0.79305E-01 0.16342     0.28270     0.33544     0.24149     0.10694     0.72918E-01 0.12241    
 0.22001     0.27655     0.28788     0.28024     0.26672     0.25556     0.25138     0.25556     0.26672     0.28024    
 0.28788     0.27655     0.22001     0.12241     0.72918E-01 0.10694     0.24149     0.33544     0.28270     0.16342    
 0.81821E-02 0.81821E-02 0.34417E-01 0.13464     0.28270     0.33231     0.21114     0.89924E-01 0.79548E-01 0.15365    
 0.25054     0.29140     0.29480     0.28363     0.26974     0.26093     0.26093     0.26974     0.28363     0.29480    
 0.29140     0.25054     0.15365     0.79548E-01 0.89924E-01 0.21114     0.33231     0.28270     0.13464     0.34417E-01
 0.27222E-03 0.24022E-02 0.34417E-01 0.16342     0.31226     0.30976     0.15630     0.75993E-01 0.10105     0.20251    
 0.28435     0.30785     0.30354     0.28942     0.27648     0.27144     0.27648     0.28942     0.30354     0.30785    
 0.28435     0.20251     0.10105     0.75993E-01 0.15630     0.30976     0.31226     0.16342     0.34417E-01 0.24022E-02
 0.18747E-01 0.79305E-01 0.21805     0.33037     0.28615     0.13463     0.75307E-01 0.11423     0.22503     0.30515    
 0.32714     0.32204     0.30721     0.29384     0.28867     0.29384     0.30721     0.32204     0.32714     0.30515    
 0.22503     0.11423     0.75307E-01 0.13463     0.28615     0.33037     0.21805     0.79305E-01 0.18747E-01 0.81821E-02
 0.79305E-01 0.19179     0.31306     0.32018     0.18373     0.85412E-01 0.92467E-01 0.19119     0.30782     0.35755    
 0.36392     0.35172     0.33539     0.32489     0.32489     0.33539     0.35172     0.36392     0.35755     0.30782    
 0.19119     0.92467E-01 0.85412E-01 0.18373     0.32018     0.31306     0.19179     0.79305E-01 0.34417E-01 0.34417E-01
 0.21805     0.31306     0.32802     0.21299     0.98716E-01 0.83976E-01 0.16229     0.29892     0.38027     0.40299    
 0.39757     0.38129     0.36680     0.36127     0.36680     0.38129     0.39757     0.40299     0.38027     0.29892    
 0.16229     0.83976E-01 0.98716E-01 0.21299     0.32802     0.31306     0.21805     0.13464     0.10610     0.13464    
 0.33037     0.32018     0.21299     0.10465     0.81817E-01 0.14489     0.28523     0.39249     0.43310     0.43738    
 0.42450     0.40858     0.39878     0.39878     0.40858     0.42450     0.43738     0.43310     0.39249     0.28523    
 0.14489     0.81817E-01 0.10465     0.21299     0.32018     0.33037     0.28270     0.24156     0.24156     0.28270    
 0.28615     0.18373     0.98716E-01 0.81817E-01 0.13929     0.27569     0.39657     0.45174     0.46610     0.45880    
 0.44401     0.43213     0.42785     0.43213     0.44401     0.45880     0.46610     0.45174     0.39657     0.27569    
 0.13929     0.81817E-01 0.98716E-01 0.18373     0.28615     0.33231     0.33382     0.32902     0.33382     0.33231    
 0.13463     0.85412E-01 0.83976E-01 0.14489     0.27569     0.39717     0.46007     0.48257     0.48148     0.46964    
 0.45777     0.45123     0.45123     0.45777     0.46964     0.48148     0.48257     0.46007     0.39717     0.27569    
 0.14489     0.83976E-01 0.85412E-01 0.13463     0.21114     0.27079     0.29696     0.29696     0.27079     0.21114    
 0.75307E-01 0.92467E-01 0.16229     0.28523     0.39657     0.46007     0.48783     0.49253     0.48483     0.47475    
 0.46796     0.46576     0.46796     0.47475     0.48483     0.49253     0.48783     0.46007     0.39657     0.28523    
 0.16229     0.92467E-01 0.75307E-01 0.89924E-01 0.12230     0.15339     0.16574     0.15339     0.12230     0.89924E-01
 0.11423     0.19119     0.29892     0.39249     0.45174     0.48257     0.49253     0.48986     0.48322     0.47806    
 0.47576     0.47576     0.47806     0.48322     0.48986     0.49253     0.48257     0.45174     0.39249     0.29892    
 0.19119     0.11423     0.79548E-01 0.70928E-01 0.73969E-01 0.78616E-01 0.78616E-01 0.73969E-01 0.70928E-01 0.79548E-01
 0.22503     0.30782     0.38027     0.43310     0.46610     0.48148     0.48483     0.48322     0.48148     0.48097    
 0.48099     0.48097     0.48148     0.48322     0.48483     0.48148     0.46610     0.43310     0.38027     0.30782    
 0.22503     0.15365     0.10821     0.85340E-01 0.75893E-01 0.73461E-01 0.75893E-01 0.85340E-01 0.10821     0.15365    
 0.30515     0.35755     0.40299     0.43738     0.45880     0.46964     0.47475     0.47806     0.48097     0.48287    
 0.48287     0.48097     0.47806     0.47475     0.46964     0.45880     0.43738     0.40299     0.35755     0.30515    
 0.25054     0.20040     0.16157     0.13691     0.12539     0.12539     0.13691     0.16157     0.20040     0.25054    
 0.32714     0.36392     0.39757     0.42450     0.44401     0.45777     0.46796     0.47576     0.48099     0.48287    
 0.48099     0.47576     0.46796     0.45777     0.44401     0.42450     0.39757     0.36392     0.32714     0.29140    
 0.25934     0.23232     0.21167     0.19869     0.19427     0.19869     0.21167     0.23232     0.25934     0.29140    
 0.32204     0.35172     0.38129     0.40858     0.43213     0.45123     0.46576     0.47576     0.48097     0.48097    
 0.47576     0.46576     0.45123     0.43213     0.40858     0.38129     0.35172     0.32204     0.29480     0.27207    
 0.25471     0.24249     0.23478     0.23106     0.23106     0.23478     0.24249     0.25471     0.27207     0.29480    
 0.30721     0.33539     0.36680     0.39878     0.42785     0.45123     0.46796     0.47806     0.48148     0.47806    
 0.46796     0.45123     0.42785     0.39878     0.36680     0.33539     0.30721     0.28363     0.26533     0.25241    
 0.24438     0.24016     0.23840     0.23796     0.23840     0.24016     0.24438     0.25241     0.26533     0.28363    
 0.29384     0.32489     0.36127     0.39878     0.43213     0.45777     0.47475     0.48322     0.48322     0.47475    
 0.45777     0.43213     0.39878     0.36127     0.32489     0.29384     0.26974     0.25255     0.24163     0.23598    
 0.23418     0.23446     0.23515     0.23515     0.23446     0.23418     0.23598     0.24163     0.25255     0.26974    
 0.28867     0.32489     0.36680     0.40858     0.44401     0.46964     0.48483     0.48986     0.48483     0.46964    
 0.44401     0.40858     0.36680     0.32489     0.28867     0.26093     0.24183     0.23052     0.22568     0.22553    
 0.22787     0.23046     0.23154     0.23046     0.22787     0.22553     0.22568     0.23052     0.24183     0.26093    
 0.29384     0.33539     0.38129     0.42450     0.45880     0.48148     0.49253     0.49253     0.48148     0.45880    
 0.42450     0.38129     0.33539     0.29384     0.26093     0.23778     0.22392     0.21813     0.21853     0.22254    
 0.22732     0.23042     0.23042     0.22732     0.22254     0.21853     0.21813     0.22392     0.23778     0.26093    
 0.30721     0.35172     0.39757     0.43738     0.46610     0.48257     0.48783     0.48257     0.46610     0.43738    
 0.39757     0.35172     0.30721     0.26974     0.24183     0.22392     0.21544     0.21489     0.21966     0.22643    
 0.23200     0.23412     0.23200     0.22643     0.21966     0.21489     0.21544     0.22392     0.24183     0.26974    
 0.32204     0.36392     0.40299     0.43310     0.45174     0.46007     0.46007     0.45174     0.43310     0.40299    
 0.36392     0.32204     0.28363     0.25255     0.23052     0.21813     0.21489     0.21884     0.22664     0.23451    
 0.23930     0.23930     0.23451     0.22664     0.21884     0.21489     0.21813     0.23052     0.25255     0.28363    
 0.32714     0.35755     0.38027     0.39249     0.39657     0.39717     0.39657     0.39249     0.38027     0.35755    
 0.32714     0.29480     0.26533     0.24163     0.22568     0.21853     0.21966     0.22664     0.23569     0.24293    
 0.24566     0.24293     0.23569     0.22664     0.21966     0.21853     0.22568     0.24163     0.26533     0.29480    
 0.30515     0.30782     0.29892     0.28523     0.27569     0.27569     0.28523     0.29892     0.30782     0.30515    
 0.29140     0.27207     0.25241     0.23598     0.22553     0.22254     0.22643     0.23451     0.24293     0.24815    
 0.24815     0.24293     0.23451     0.22643     0.22254     0.22553     0.23598     0.25241     0.27207     0.29140    
 0.22503     0.19119     0.16229     0.14489     0.13929     0.14489     0.16229     0.19119     0.22503     0.25054    
 0.25934     0.25471     0.24438     0.23418     0.22787     0.22732     0.23200     0.23930     0.24566     0.24815    
 0.24566     0.23930     0.23200     0.22732     0.22787     0.23418     0.24438     0.25471     0.25934     0.25054    
 0.11423     0.92467E-01 0.83976E-01 0.81817E-01 0.81817E-01 0.83976E-01 0.92467E-01 0.11423     0.15365     0.20040    
 0.23232     0.24249     0.24016     0.23446     0.23046     0.23042     0.23412     0.23930     0.24293     0.24293    